"CASRN"	"Chemical"	"Tc"	"Pc"	"Vc"	"omega"
"877-44-1"	"1,2,4-triethylbenzene"	684	23.8	600	0.501
"87827-60-9"	"(R)-1,2-decanediol"	716.12	25.3	629	1.315
"879-12-9"	"1,2,3-trimethylnaphthalene"	783.95	26.71	577.5	0.492
"879-97-0"	"4-tert-butyl-2,6-dimethylphenol"	755.67	27.47	598.7	0.59
"88-05-1"	"2,4,6-trimethylaniline"	705.58	32.84	482	0.413
"88-09-5"	"2-ethylbutanoic acid"	655	34.1	389	0.633
"88-18-6"	"2-tert-butylphenol"	725.38	35.14	410.5	0.444
"88-20-0"	"2-methylbenzenesulfonic acid"		0	438	
"88-60-8"	"2-tert-butyl-5-methylphenol"	751	29.8	546	0.569
"88-69-7"	"2-isopropylphenol"	714.75	38.97	359.5	0.464
"88-72-2"	"o-nitrotoluene"	720	38	441	0.482
"88-73-3"	"o-chloronitrobenzene"	757	39.8	432	0.486
"88-74-4"	"o-nitroaniline"	784	44.2	406	0.741
"88-99-3"	"phthalic acid"	800	39.5	424	1.058
"88736-68-9"	"1,2-dimethylpropyl butanoate"	608	23.5	500	0.868
"88917-22-0"	"di(propylene glycol) methyl ether acetate, isomers"	647	22.7	609	0.702
"89-05-4"	"pyromellitic acid"	883	31.4	584	1.83
"89-48-5"	"menthyl acetate"	694	21.5	619.8	
"89-72-5"	"2-sec-butylphenol"	720.28	34.68	415.5	0.51
"89-83-8"	"5-methyl-2-propylphenol"	780.8	33.76	421.5	0.541
"89-95-2"	"2-methylbenzenemethanol"	691	39.2	387	0.743
"89223-57-4"	"1-methyl-2-isopropylcyclopentane"	610.99	26.81	477.3	0.302
"89796-76-9"	"4,4-dichloroheptane"	654.02	26.14	519.5	0.442
"89886-25-9"	"trans-2-ethylcyclohexanol, (±)"	645	35.9	448.2	
"89896-73-1"	"3-heptenal"	610	33	358	
"90-00-6"	"o-ethylphenol"	703	42.9	351	0.476
"90-02-8"	"salicylaldehyde"	680	49.9	342	0.619
"90-05-1"	"guaiacol"	697	47.3	353	0.571
"90-11-9"	"1-bromonaphthalene"	824	37	453	0.369
"90-12-0"	"1-methylnaphthalene"	772	36	465	0.342
"90-13-1"	"1-chloronaphthalene"	785	34	434	0.383
"90-42-6"	"[1,1'-bicyclohexyl]-2-one"	787	27.4	569	0.315
"90023-96-4"	"methyl-2-methylbutylamine"	560.25	31.81	400.5	0.432
"90112-75-7"	"6-methyl-2-heptenoic acid"	736	27	494.4	
"90112-82-6"	"3-hydroxy-2,2-dimethylhexanoic acid, βlactone"	736	27	494.4	
"90162-24-6"	"2,4-octanediol"	692.04	31	517	1.28
"90200-83-2"	"5-octeN-1-ol"	615	31	387.5	
"90202-21-4"	"2-chloro-2-octene"	640.48	25.74	512.5	0.43
"90226-23-6"	"N,4-dimethylcyclohexylamine"	642	31	448.7	
"90644-60-3"	"2-noneN-4-yne"	595	30	424.8	
"90645-54-8"	"2,4,6-trimethylcyclohexanone"	690	29.5	474.6	
"90676-55-4"	"3-methyl-4-octeN-3-ol"	629	27	447.3	
"90760-75-1"	"1,3,5-trimethylcyclohexanol"	655	33.9	478.8	
"90769-70-3"	"4-isopropyl-1-methylcyclopentene"	626.53	28.72	466.5	0.359
"91-08-7"	"toluene-2,6-diisocyanate"	749	29	525	0.434
"91-17-8"	"decahydronaphthalene"	694.65	30.4	480	0.274
"91-20-3"	"naphthalene"	748.4	40.5	407	0.302
"91-22-5"	"quinoline"	782.15	48.6	371	0.347
"91-23-6"	"o-nitroanisole"	782	37.6	422	0.561
"91-57-6"	"2-methylnaphthalene"	761	35	465	0.378
"91-58-7"	"2-chloronaphthalene"	785	34	434	0.383
"91-62-3"	"6-methylquinoline"	789.75	38.29	458.5	0.452
"91-63-4"	"2-methylquinoline"	769	33.5	490	0.359
"91-66-7"	"N,N-diethylaniline"	702	28.5	556	0.426
"91-67-8"	"N,N-diethyl-m-toluidine"	700	27.5	566.1	
"91049-43-3"	"1,2-pentanediol, (±)"	633.16	44.22	342.9	1.144
"917-92-0"	"3,3-dimethyl-1-butyne"	491.15	37.78	322.5	0.167
"918-02-5"	"dimethyl-tert-butylamine"	545.31	33.14	398.5	0.3
"918-07-0"	"2-chloro-2,3,3-trimethylbutane"	621.08	26.93	476.5	0.418
"918-82-1"	"3,3-dimethyl-1-pentyne"	528.91	33.68	378.5	0.21
"918-84-3"	"3-chloro-3-methylpentane"	582.19	30.46	409.5	0.283
"918-85-4"	"3-methyl-1-penteN-3-ol"	587	39	298.9	
"91840-99-2"	"2-butanethiol"	553	40.38	307	0.242
"919-12-0"	"3-ethyl-3-methyl-1-pentyne"	594.1	29.59	444.3	0.359
"919-94-8"	"2-ethoxy-2-methylbutane"	546	27.4	452	0.338
"92-06-8"	"m-terphenyl"	883	24.8	724	0.651
"92-24-0"	"naphthacene"	987	23.9	690	0.565
"92-51-3"	"bicyclohexyl"	727	25.6	598	0.428
"92-52-4"	"phenylbenzene (biphenyl)"	773	33.8	497	0.403
"92-67-1"	"p-aminodiphenyl"	867	32.9	572	0.542
"92-87-5"	"p-benzidine"	929	33	596	0.735
"92-94-4"	"p-terphenyl"	908	29.9	729	0.643
"920-35-4"	"3-fluoro-2-methyl-1-propene"	473.42	39.06	259.5	0.237
"92013-11-1"	"2-propyl-1H-indene"	726	27.7	529	0.441
"92089-78-6"	"2-fluoro-3,3-dimethylbutane"	517.4	30.46	372.5	0.253
"921-04-0"	"dimethyl-sec-butylamine"	542.32	32.73	403.5	0.361
"921-47-1"	"2,3,4-trimethylhexane"	594.5	25.23	494	0.353
"922-17-8"	"3,4-hexanediol"	652.71	39.36	397.5	1.179
"922-28-1"	"3,4-dimethylheptane"	591.9	24.62	503	0.379
"922-59-8"	"3-methyl-1-pentyne"	512.82	37.27	327.5	0.226
"922-61-2"	"3-methyl-2-pentene"	506.59	32.05	352.3	0.25
"922-62-3"	"cis-3-methyl-2-pentene"	515	32.9	343	0.259
"922-63-4"	"2-ethylacrolein"	570	41	271.5	
"923-26-2"	"1,2-propanediol 1-methacrylate"	663	31.4	446	0.754
"923-28-4"	"2-methyl-3-octanone"	629.65	24.67	533.8	0.541
"924-50-5"	"methyl 3-methyl-2-butenoate"	569	32.5	376	0.434
"925-60-0"	"propyl acrylate"	569	32.5	376	0.432
"925-78-0"	"3-nonanone"	629.65	24.67	533.8	0.541
"926-02-3"	"tert-butyl vinyl ether"	536	31.2	364	0.38
"926-41-0"	"2,2-dimethylpropyl acetate"	577	27.2	448	0.403
"926-54-5"	"2-methyl-1,trans-3-pentadiene"	535.2	34.81	333.5	0.241
"926-55-6"	"2-methyl-1-penteN-3-yne"	525	40	284.3	
"926-56-7"	"4-methyl-1,3-pentadiene"	535.66	34.81	333.5	0.241
"926-57-8"	"1,3-dichloro-2-butene, cis and trans"	640	37.98	332	0.302
"926-63-6"	"dimethyl-propylamine"	528	33.5	345	0.175
"926-65-8"	"isopropyl vinyl ether"	505.58	35.97	313.5	0.323
"926-82-9"	"3,5-dimethylheptane"	583.2	24.01	510	0.385
"927-49-1"	"6-undecanone"	678.01	20.46	657.5	0.653
"927-54-8"	"5-chloro-1-hexene"	583.61	31.6	400.5	0.341
"927-62-8"	"dimethylbutylamine"	538	29.3	418	0.34
"927-73-1"	"4-chloro-1-butene"	535.14	39.21	289.5	0.262
"92737-91-2"	"3-methyl-4-heptanol, (R*,S*)-(±)"	600.92	28.49	488	0.733
"928-40-5"	"1,5-hexanediol"	660.36	38.97	403.5	1.214
"928-49-4"	"3-hexyne"	544	35.3	331	0.218
"928-50-7"	"5-chloro-1-pentene"	566.62	34.89	345.5	0.307
"928-55-2"	"ethyl propenyl ether"	505.58	35.97	313.5	0.323
"928-68-7"	"6-methyl-2-heptanone"	624	26.4	469	0.528
"928-80-3"	"3-decanone"	656.59	22.36	601.5	0.612
"928-92-7"	"trans-4-hexeN-1-ol"	587	39	303.8	
"928-94-9"	"cis-2-hexeN-1-ol"	587	39	303.8	
"928-95-0"	"trans-2-hexeN-1-ol"	587	39	303.8	
"928-96-1"	"cis-3-hexeN-1-ol"	587	39	303.8	
"928-97-2"	"trans-3-hexeN-1-ol"	587	39	303.8	
"929-06-6"	"2-aminoethoxyethanol"	699	43.6	330	0.969
"929-61-3"	"1-ethoxy-octane"	622	20.9	593	0.601
"929-62-4"	"octyl vinyl ether"	636	25	528.2	
"929-77-1"	"methyl docosanoate"	798	10.6	1210.8	
"929-98-6"	"10-thianonadecane"	810.53	11.66	1097.5	0.787
"93-22-1"	"2-pentylnaphthalene"	797.48	22.74	689.5	0.575
"93-37-8"	"2,7-dimethylquinoline"	774.45	33.53	514.5	0.497
"93-53-8"	"α-methylbenzeneacetaldehyde"	682	33	424	0.459
"93-54-9"	"α-ethylbenzenemethanol"	677	34.9	440	0.746
"93-58-3"	"methyl benzoate"	693	35.9	436	0.421
"93-89-0"	"ethyl benzoate"	698	31.8	489	0.477
"930-18-7"	"1,cis-2-dimethylcyclopropane"	485.69	40.06	281.5	0.215
"930-27-8"	"3-methylfuran"	528.6	48.43	250.5	0.289
"930-87-0"	"1,2,5-trimethyl-1H-pyrrole"	650	40.5	350.3	
"930-89-2"	"1-methyl-cis2-ethylcyclopentane"	597.34	29.57	423.5	0.29
"930-90-5"	"1-methyl-trans-2-ethylcyclopentane"	587.14	29.57	423.5	0.29
"931-10-2"	"trans-2-methylcyclohexylamine"	622	34.9	393	0.386
"931-88-4"	"cyclooctene"	632	36.8	381	0.28
"932-01-4"	"4,4-dimethylcyclohexanol"	645	35.9	448.2	
"932-39-8"	"1,cis-2-diethylcyclopentane"	622.31	26.71	479.5	0.334
"932-40-1"	"1,trans-2-diethylcyclopentane"	613.51	26.71	479.5	0.334
"932-43-4"	"1-methyl-cis2-propylcyclopentane"	620.88	26.71	479.5	0.334
"932-44-5"	"1-methyl-trans-2-propylcyclopentane"	611.82	26.71	479.5	0.334
"933-12-0"	"3,5,5-trimethylcyclohexene"	620	28.6	451.8	
"933-36-8"	"2,2,5-trimethylcyclohexanone"	690	29.5	474.6	
"933-48-2"	"cis-3,3,5-trimethylcyclohexanol"	655	33.9	478.8	
"933-98-2"	"3-ethyl-o-xylene"	680	28.8	507	0.362
"934-74-7"	"5-ethyl-m-xylene"	655	27.5	482	0.417
"934-80-5"	"4-ethyl-o-xylene"	667	28.8	490	0.411
"935-28-4"	"2,6-diethylpyridine"	673	30	469.4	
"936-89-0"	"2,4-diethylphenol"	714.21	33.76	421.5	0.541
"937-05-3"	"cis-4-(1,1-dimethylethyl)cyclohexanol"	665	30.9	529.8	
"937-33-7"	"N-tert-butylaniline"	690	29.85	525.5	0.69
"93716-28-0"	"3-ethyltetrahydrofuran"	590.7	37.96	333.5	0.308
"939-27-5"	"2-ethylnaphthalene"	771	31.7	520	0.421
"93921-42-7"	"trans-2,4-dimethylcyclohexanone, (2S)"	670	32.5	421.7	
"94-04-2"	"vinyl 2-ethylhexanoate"	650	23.5	540.2	
"94-36-0"	"benzoyl peroxide"	884	25.7	718	0.914
"94-60-0"	"dimethyl cyclohexane-1,4-dicarboxylate"	736	24.9	569	0.641
"94-65-5"	"2-propylcyclohexanone"	690	29.5	474.6	
"94-66-6"	"2-allylcyclohexanone"	690	29.5	478.5	
"94-68-8"	"N-ethyl-2-methylaniline"	705.58	32.84	482	0.413
"94-96-2"	"2-ethyl-1,3-hexanediol"	692.04	31	517	1.28
"94-99-5"	"2,4-dichlorobenzyl chloride"	737	33.4	447	0.26
"941-60-6"	"2,3-dihydro-1,1,4,6-tetramethyl-1H-indene"	749.21	25.13	604.5	0.468
"94434-64-7"	"14-methyloctadecanoic acid"	810	13	1080	1.07
"948-32-3"	"1,2,4-triisopropylbenzene"	741	18.95	790	0.638
"948-97-0"	"2,3-diphenyl-1-propene"	796.49	26.6	640.5	0.465
"95-13-6"	"indene"	687	38.2	368	0.335
"95-15-8"	"benzothiophene"	754	41.4	349	0.296
"95-46-5"	"o-bromotoluene"	699	43.7	379	0.318
"95-47-6"	"o-xylene"	630.3	37.32	370	0.31
"95-48-7"	"o-cresol"	697.55	50.06	282	0.434
"95-49-8"	"o-chlorotoluene"	656	39.1	354	0.304
"95-50-1"	"o-dichlorobenzene"	705	40.7	351	0.219
"95-51-2"	"o-chloroaniline"	722	45.9	364	0.421
"95-52-3"	"o-fluorotoluene"	590.48	38.15	337.5	0.311
"95-53-4"	"o-toluidine"	716.5	47	347.6	0.384
"95-54-5"	"o-phenylenediamine"	781	51.8	315	0.539
"95-57-8"	"o-chlorophenol"	675	50	325	0.437
"95-63-6"	"1,2,4-trimethylbenzene"	649.1	32.3	430	0.379
"95-64-7"	"3,4-dimethylaniline"	695.58	36.84	432	0.433
"95-65-8"	"3,4-xylenol"	729.95	50	350	0.576
"95-68-1"	"2,4-dimethylaniline"	695.58	36.84	432	0.433
"95-71-6"	"1,4-dihydroxy-2-methylbenzene"	828.51	61.32	187.5	0.565
"95-73-8"	"2,4-dichlorotoluene"	705	35.9	404	0.359
"95-75-0"	"3,4-dichlorotoluene"	710	36.2	404	0.343
"95-76-1"	"3,4-dichloroaniline"	800	41.1	409	0.468
"95-78-3"	"2,5-dimethylaniline"	695.58	36.84	432	0.433
"95-80-7"	"m-toluenediamine"	804	43.8	376	0.579
"95-87-4"	"2,5-xylenol"	707.05	49	350	0.564
"95-92-1"	"diethyl oxalate"	618	30.9	452.2	0.808
"95-93-2"	"1,2,4,5-tetramethylbenzene"	676	29	482	0.422
"95-94-3"	"1,2,4,5-tetrachlorobenzene"	759.69	36.47	459.5	0.437
"96-05-9"	"allyl methacrylate"	600	30.2	415	0.388
"96-11-7"	"1,2,3-tribromopropane"	743.76	60	383.5	0.52
"96-14-0"	"3-methylpentane"	504.43	31.24	366.4	0.274
"96-15-1"	"2-methylbutylamine"	542.6	36.2	341	0.416
"96-17-3"	"2-methylbutanal"	543.73	38.29	326.5	0.388
"96-18-4"	"1,2,3-trichloropropane"	652	38.7	334	0.306
"96-20-8"	"2-aminobutaN-1-ol"	571.82	41.4	300	0.711
"96-22-0"	"diethyl ketone"	560.9	37.4	336	0.345
"96-23-1"	"1,3-dichloro-2-propanol"	633	45	308	0.7
"96-24-2"	"3-chloro-1,2-propanediol"	648	52.5	283	1.219
"96-33-3"	"methyl acrylate"	536	42.5	270	0.348
"96-34-4"	"methyl chloroacetate"	600	45	270	0.434
"96-37-7"	"methylcyclopentane"	532.79	37.85	318.9	0.23
"96-47-9"	"2-methyltetrahydrofuran"	537	37.6	267	0.3
"96-48-0"	"γ-butyrolactone"	739	59.4	265	0.369
"96-49-1"	"ethylene carbonate"	806	67.7	193	0.442
"96-54-8"	"N-methylpyrrole"	610	47.7	283	0.213
"96-70-8"	"2-tert-butyl-4-ethylphenol"	755.67	27.47	598.7	0.59
"96-76-4"	"2,4-di-tert-butylphenol"	765	22.8	704	0.631
"96-80-0"	"N,N-diisopropylethanolamine"	741	31	512	
"96034-00-3"	"bis(2-methylbutyl) sulfide"	701.03	21.41	649.5	0.551
"96244-13-2"	"1,2,6-trimethylcyclohexanol"	655	33.9	478.8	
"97-00-7"	"1-chloro-2,4-dinitrobenzene"	813.77	34.9	478	0.732
"97-61-0"	"2-methylpentanoic acid"	661	33.8	389	0.652
"97-62-1"	"ethyl isobutanoate"	553.15	30.4	410	0.426
"97-63-2"	"ethyl methacrylate"	577	32.5	375	0.344
"97-64-3"	"ethyl lactate"	588	38.6	354	0.793
"97-65-4"	"itaconic acid"	821	42.4	340	0.925
"97-84-7"	"N,N,N',N'-tetramethyl-1,3-butanediamine"	715	31.5	525.3	
"97-85-8"	"2-methylpropyl isobutanoate"	602	26.1	494	0.403
"97-86-9"	"isobutyl methacrylate"	612	26.7	493	0.421
"97-87-0"	"butyl isobutyrate"	602	26.1	494	0.395
"97-88-1"	"butyl methacrylate"	619	26.3	481	0.447
"97-89-2"	"citronellyl isobutyrate"	738	18	773.8	
"97-93-8"	"triethyl aluminum"	678.15	89.3	230	0.842
"97-95-0"	"2-ethyl-1-butanol"	580	34	380	0.714
"97-96-1"	"2-ethylbutanal"	568.76	34.12	382.5	0.433
"97-99-4"	"tetrahydrofurfuryl alcohol"	639	46.6	290	0.704
"97961-66-5"	"trans-2-methyl-2-hexenoic acid"	716	29	451.8	
"98-00-0"	"furfuryl alcohol"	632	53.5	263	0.734
"98-01-1"	"furfural"	670.15	56.6	252	0.368
"98-06-6"	"tert-butylbenzene"	660	29.7	492	0.267
"98-07-7"	"benzotrichloride"	737	33.4	447	0.26
"98-08-8"	"benzotrifluoride"	559.9	32.1	356	0.3
"98-11-3"	"benzenesulfonic acid"		0	386	
"98-13-5"	"trichlorophenylsilane"	688	29.6	499	0.396
"98-19-1"	"1-tert-butyl-3,5-dimethylbenzene"	697.15	23.61	602	0.437
"98-27-1"	"4-tert-butyl-2-methylphenol"	751	29.8	546	0.569
"98-29-3"	"p-tert-butylcatechol"	776	37.7	511	0.734
"98-46-4"	"3-nitrobenzotrifluoride"	667	28	441	0.536
"98-51-1"	"1-methyl-4-tert-butylbenzene"	676.56	26.6	532.5	0.351
"98-52-2"	"4-tert-butylcyclohexanol"	" (cis+trans)"	0.00665	3090000000000	0.0005298
"98-53-3"	"4-tert-butylcyclohexanone"	710	27.5	519.5	
"98-54-4"	"4-tert-butylphenol"	734	33.4	493	0.509
"98-55-5"	"a-terpineol"	675	29.5	507	0.699
"98-56-6"	"p-chlorobenzotrifluoride"	601	30.1	399	0.372
"98-66-8"	"4-chlorobenzenesulfonic acid"		0	429	
"98-82-8"	"cumene"	631	32.09	434	0.327
"98-83-9"	"α-methylstyrene"	654	33.6	399	0.323
"98-85-1"	"1-phenylethanol"	668	39.9	387	0.706
"98-86-2"	"acetophenone"	709.6	40.1	386	0.383
"98-87-3"	"benzyl dichloride"	731	36.5	404	0.326
"98-88-4"	"benzoyl chloride"	697	40.6	367	0.416
"98-94-2"	"cyclohexyldimethylamine"	642	31	448.7	
"98-95-3"	"nitrobenzene"	719	44	349	0.449
"98070-91-8"	"2,2,3-trichloro-3-methylbutane"	635.09	31.21	451.5	0.345
"98790-22-8"	"cis-4-propylcyclohexanol"	655	33.9	478.8	
"98924-04-0"	"disiloxane, trichlorotrifluoro"	508.78	26.77	433	
"98930-89-3"	"2-methyl-3-tridecanol"	736.2	17.15	812.5	0.686
"98991-54-9"	"3-hepteN-2-ol"	601	35	341	
"99-08-1"	"m-nitrotoluene"	734	38	441	0.492
"99-09-2"	"m-nitroaniline"	815	44.2	406	0.73
"99-35-4"	"1,3,5-trinitrobenzene"	846	33.9	479	0.862
"99-54-7"	"1,2-dichloro-4-nitrobenzene"	758	36	436	0.539
"99-62-7"	"m-diisopropylbenzene"	684	24.5	600	0.359
"99-63-8"	"isophthaloyl chloride"	768	33.3	471	0.646
"99-65-0"	"m-dinitrobenzene"	808	38.5	434	0.667
"99-66-1"	"2-propylpentanoic acid"	692	26.9	494	0.779
"99-71-8"	"4-sec-butylphenol"	740.54	34.68	415.5	0.51
"99-82-1"	"1-methyl-4-isopropylcyclohexane"	667	25.7	534	0.274
"99-83-2"	"α-phellandrene"	649	28.2	500	0.381
"99-85-4"	"γ-terpinene"	661	28	489	0.376
"99-86-5"	"α-terpinene"	649	28	489	0.372
"99-87-6"	"p-cymene"	652	28	497	0.374
"99-88-7"	"4-isopropylaniline"	705.58	32.84	482	0.413
"99-89-8"	"4-isopropylphenol"	736.3	38.97	359.5	0.464
"99-93-4"	"1-(4-hydroxyphenyl)ethanone"	860	44.5	394	0.641
"99-94-5"	"p-toluic acid"	773	38.6	397	0.661
"99-97-8"	"4-methyl-N,N-dimethylaniline"	705.58	32.84	482	0.413
"99-99-0"	"p-nitrotoluene"	743	32.07	441	0.425
"992-94-9"	"methyl silane"	352.5	48.4	205	0.139
"99210-90-9"	"(R)-(-)-2-methyl-2,4-pentanediol"	649.93	39.42	396.9	1.16
"993-00-0"	"methyl chlorosilane"	442	41.7	246	0.225
"993-07-7"	"trimethyl silane"	432	31.9	311	0.175
"994-05-8"	"methyl tert-pentyl ether"	534	30.4	382	0.298
"994-25-2"	"3-chloro-3-ethylpentane"	621.08	26.93	476.5	0.418
"996-35-0"	"dimethylisopropylamine"	511.91	36.64	347.5	0.317
"99706-68-0"	"1,12-tridecanediol"	755.8	19.3	797	1.313
"998-35-6"	"5-propylnonane"	633.2	17.92	701.5	0.548
"998-65-2"	"5-ethyl-1-heptanol"	625.91	25.46	552.5	0.846
"998-76-5"	"1,2-diiodopentane"	744.5	33.26	485.5	0.332
"998-93-6"	"4-bromoheptane"	651	30.8	447	0.444
"998-95-8"	"4-chloroheptane"	621.08	26.93	476.5	0.418
"99814-65-0"	"1-pentadeceN-3-ol"	713	15	850.3	
"999-21-3"	"diallyl maleate"	693	23.3	606	0.789
"999-52-0"	"3-chloroheptane"	621.08	26.93	476.5	0.418
"999-78-0"	"4,4-dimethyl-2-pentyne"	552.81	34.16	378.5	0.191
"999-97-3"	"hexamethyldisilazane"	544	19.2	613	0.51