"CASRN"	"Chemical"	"Tc"	"Pc"	"Vc"	"omega"
"62016-74-4"	"pentacosylcyclopentane"	894.22	6.51	1656.5	
"62016-75-5"	"1-chloroheptadecane"	773.57	12	1036.5	0.764
"62016-76-6"	"1-chlorononadecane"	792.26	10.55	1148.5	0.783
"62016-77-7"	"1-chlorotricosane"	832.05	8.34	1372.5	0.734
"62016-78-8"	"1-chloropentacosane"	854.75	7.49	1484.5	
"62016-79-9"	"1-chloroheptacosane"	877.97	6.76	1596.5	
"62016-80-2"	"1-chlorooctacosane"	890.78	6.43	1652.5	
"62016-81-3"	"1-chlorononacosane"	903.2	6.13	1708.5	
"62016-82-4"	"1-chlorotriacontane"	916.5	5.85	1764.5	
"62016-83-5"	"1-chlorohentriacontane"	930.73	5.59	1820.5	
"62016-84-6"	"1-chlorodotriacontane"	945.94	5.34	1876.5	
"62016-85-7"	"1-chlorotritriacontane"	960.92	5.11	1932.5	
"62016-86-8"	"1-chlorotetratriacontane"	976.98	4.9	1988.5	
"62016-87-9"	"1,1-dicyclohexyloctane"	797.35	13.44	1021.5	0.653
"62016-88-0"	"1-chlorohexatriacontane"	1012.64	4.51	2100.5	
"62016-89-1"	"1-chloroheptatriacontane"	1032.39	4.33	2156.5	
"62016-90-4"	"1-chlorooctatriacontane"	1052.23	4.16	2212.5	
"62016-91-5"	"1-chlorononatriacontane"	1073.56	4	2268.5	
"62016-92-6"	"1-chlorotetracontane"	1096.5	3.85	2324.5	
"62016-93-7"	"1-chloro-3-methylpentane"	591.93	30.09	414.5	0.343
"62016-94-8"	"1-chloro-4-methylpentane"	586.04	30.09	414.5	0.343
"62017-16-7"	"1,1-dichlorohexane"	633.09	28.91	463.5	0.397
"62017-17-8"	"1,1-dichlorododecane"	733.47	16.85	799.5	0.647
"62017-19-0"	"1,1-dichlorohexadecane"	782.08	12.57	1023.5	0.76
"62017-20-3"	"1,1-dichlorooctadecane"	803.67	11.02	1135.5	0.786
"62017-21-4"	"1,1-dichlorononadecane"	814.08	10.35	1191.5	0.789
"62017-22-5"	"1,1-dichloroeicosane"	825.11	9.74	1247.5	0.785
"62017-23-6"	"1,1-dichloroheneicosane"	835.53	9.18	1303.5	0.773
"62017-24-7"	"1,1-dichlorodocosane"	846.62	8.67	1359.5	0.754
"62017-25-8"	"1,1-dichlorotricosane"	857.18	8.2	1415.5	0.728
"62017-26-9"	"1,1-dichlorotetracosane"	868.44	7.77	1471.5	
"62017-27-0"	"1,1-dichloropentacosane"	880.46	7.37	1527.5	
"62017-28-1"	"1,1-dichlorohexacosane"	892.02	7	1583.5	
"62017-29-2"	"1,1-dichloroheptacosane"	904.39	6.66	1639.5	
"62017-30-5"	"1,1-dichlorooctacosane"	917.6	6.34	1695.5	
"62017-31-6"	"1,1-dichlorononacosane"	930.45	6.04	1751.5	
"62017-32-7"	"1,1-dichlorotriacontane"	944.23	5.77	1807.5	
"62017-33-8"	"1,1-dichlorohentriacontane"	958.98	5.51	1863.5	
"62017-34-9"	"1,1-dichlorodotriacontane"	974.75	5.27	1919.5	
"62017-35-0"	"1,1-dichlorotritriacontane"	990.34	5.05	1975.5	
"62017-36-1"	"1,1-dichlorotetratriacontane"	1007.06	4.83	2031.5	
"62017-37-2"	"1,1-dichloropentatriacontane"	1024.98	4.64	2087.5	
"62017-38-3"	"1,1-dichlorohexatriacontane"	1044.19	4.45	2143.5	
"62017-39-4"	"1,1-dichloroheptatriacontane"	1064.78	4.28	2199.5	
"62017-40-7"	"1,1-dichlorooctatriacontane"	1085.53	4.11	2255.5	
"62017-41-8"	"1,1-dichlorononatriacontane"	1107.85	3.96	2311.5	
"62017-42-9"	"1,1-dichlorotetracontane"	1131.86	3.81	2367.5	
"62046-36-0"	"1,1-dichloroheptadecane"	792.59	11.76	1079.5	0.776
"62067-44-1"	"1-ethyl-3-methylcyclohexanol"	655	33.9	478.8	
"62088-36-2"	"1-ethyl-4-methylcyclohexene"	620	28.6	451.8	
"621-27-2"	"3-propylphenol"	730.33	38.58	365.5	0.496
"621-77-2"	"tripentylamine"	660	15	893	0.853
"62103-66-6"	"4-thiatridecane"	733.68	18.06	761.5	0.631
"62108-06-9"	"4-methyl-1-octeN-4-ol"	629	27	447.3	
"62108-44-5"	"1-bromotricosane"	847.76	8.87	1385.5	0.788
"62108-45-6"	"1-bromopentacosane"	869.43	7.94	1497.5	0.714
"62108-46-7"	"1-bromoheptacosane"	894.13	7.15	1609.5	
"62108-47-8"	"1-bromononacosane"	919.68	6.46	1721.5	
"62108-48-9"	"1-bromohentriacontane"	946.37	5.88	1833.5	
"62108-49-0"	"1-bromotritriacontane"	977.03	5.37	1945.5	
"62108-50-3"	"1-bromotetratriacontane"	993.37	5.13	2001.5	
"62108-51-4"	"1-bromopentatriacontane"	1010.87	4.92	2057.5	
"62108-52-5"	"1-bromoheptatriacontane"	1049.74	4.53	2169.5	
"62108-53-6"	"1-bromooctatriacontane"	1069.97	4.35	2225.5	
"62108-54-7"	"1-bromononatriacontane"	1091.72	4.18	2281.5	
"62108-55-8"	"1-bromotetracontane"	1115.11	4.02	2337.5	
"62108-56-9"	"1,1,1-trichlorodecane"	724.19	19.41	731.5	0.561
"62108-57-0"	"1,1,1-trichlorododecane"	751.55	16.5	843.5	0.638
"62108-58-1"	"1,1,1-trichlorotetradecane"	775.24	14.2	955.5	0.702
"62108-59-2"	"1,1,1-trichloropentadecane"	787.14	13.22	1011.5	0.729
"62108-60-5"	"1,1,1-trichlorohexadecane"	798.28	12.35	1067.5	0.75
"62108-61-6"	"1,1,1-trichloroheptadecane"	808.7	11.55	1123.5	0.766
"62108-62-7"	"1,1,1-trichlorooctadecane"	819.7	10.83	1179.5	0.775
"62108-63-8"	"1,1,1-trichlorononadecane"	830.05	10.18	1235.5	0.778
"62108-64-9"	"1,1,1-trichloroeicosane"	841.03	9.59	1291.5	0.774
"62108-65-0"	"1,1,3-trichloro-2-methylpropane"	620.86	34.72	394.5	0.332
"62108-81-0"	"1-fluoroheptacosane"	841.24	6.73	1565.5	
"62108-82-1"	"1-fluorooctacosane"	854	6.41	1621.5	
"62108-83-2"	"1-fluorononacosane"	866.34	6.11	1677.5	
"62108-84-3"	"1-fluorotriacontane"	879.52	5.83	1733.5	
"62108-85-4"	"1-fluorohentriacontane"	893.61	5.57	1789.5	
"62108-86-5"	"1-fluorodotriacontane"	908.63	5.32	1845.5	
"62108-87-6"	"1-fluorotritriacontane"	923.4	5.09	1901.5	
"62108-88-7"	"1-fluorotetratriacontane"	939.21	4.88	1957.5	
"62108-89-8"	"1-fluoropentatriacontane"	956.14	4.68	2013.5	
"62108-90-1"	"1-fluorohexatriacontane"	974.25	4.49	2069.5	
"62108-91-2"	"1-fluoroheptatriacontane"	993.63	4.31	2125.5	
"62108-92-3"	"1-fluorooctatriacontane"	1013.07	4.15	2181.5	
"62108-93-4"	"1-fluorononatriacontane"	1035.28	3.99	2237.5	
"62108-94-5"	"1-fluorotetracontane"	1057.73	3.84	2293.5	
"62108-95-6"	"2-fluoro-3-methylbutane"	486.77	33.53	321.5	0.269
"62126-74-3"	"2,4-dimethyl-3-ethylphenol"	733.03	33.18	421.5	0.54
"62126-75-4"	"3,4-dimethyl-5-ethylphenol"	733.24	33.18	421.5	0.54
"62126-76-5"	"3,5-dimethyl-2-ethylphenol"	761.5	33.18	421.5	0.54
"62126-77-6"	"3,5-dimethyl-4-ethylphenol"	757.44	33.18	421.5	0.54
"62126-78-7"	"1-fluoroheneicosane"	772.53	9.3	1229.5	0.771
"62126-79-8"	"1-fluorodocosane"	783.55	8.78	1285.5	0.755
"62126-80-1"	"1-fluorotricosane"	795.19	8.3	1341.5	0.731
"62126-81-2"	"1-fluorotetracosane"	806.26	7.86	1397.5	
"62126-82-3"	"1-fluoropentacosane"	818.02	7.45	1453.5	
"62126-83-4"	"1-fluorohexacosane"	829.26	7.08	1509.5	
"62126-84-5"	"1,1,1-trifluoroheptadecane"	710.6	11.9	1017	0.713
"62126-85-6"	"1,1,1-trifluorononadecane"	733.2	10.6	1127	0.733
"62126-86-7"	"1,1,1-trifluoroeicosane"	743.4	10	1182	0.746
"62126-87-8"	"1,1-difluorooctatriacontane"	996.21	4.08	2193.5	
"62126-88-9"	"1,1-difluorononatriacontane"	1018.78	3.93	2249.5	
"62126-89-0"	"1,1-difluorotetracontane"	1040.24	3.79	2305.5	
"62126-90-3"	"1,2-difluoropropane"	443.3	38.67	248.5	0.265
"62126-91-4"	"1,1-difluoro-2-methylpropane"	465.72	35.6	283.5	0.277
"62126-92-5"	"1,2-difluoro-2-methylpropane"	472.94	35.73	284.5	0.246
"62126-93-6"	"1,3-difluoro-2-methylpropane"	506.9	35.26	289.5	0.306
"62126-94-7"	"1,2-difluoropentane"	513.8	31.56	345.5	0.351
"62126-95-8"	"1,3-difluoropentane"	521.18	31.56	345.5	0.351
"62126-96-9"	"1,4-difluoropentane"	530.03	31.56	345.5	0.351
"62126-97-0"	"1,1,1-trifluoroundecane"	620	17.7	687	0.564
"62126-98-1"	"1,1,1-trifluorotridecane"	654.9	15.4	797	0.615
"62126-99-2"	"1,1,1-trifluorotetradecane"	670.4	14.4	852	0.645
"62127-00-8"	"1,1,1-trifluoropentadecane"	684.8	13.5	907	0.658
"62127-01-9"	"1,1,1-trifluorohexadecane"	698.2	12.7	962	0.682
"62127-02-0"	"1,1-difluorotridecane"	672.3	15.4	783	0.586
"62127-03-1"	"1,1-difluorotetradecane"	686.6	14.3	838	0.595
"62127-04-2"	"1,1-difluoropentadecane"	699.8	13.4	893	0.619
"62127-05-3"	"1,1-difluorohexadecane"	712.1	12.5	948	0.633
"62127-06-4"	"1,1-difluoroheptadecane"	723.6	11.7	1003	0.643
"62127-07-5"	"1,1-difluorooctadecane"	734.4	11	1058	0.662
"62127-08-6"	"1,1-difluorononadecane"	744.5	10.3	1113	0.67
"62127-09-7"	"1,1-difluoroeicosane"	754	9.7	1168	0.687
"62127-10-0"	"1,1-difluoroheneicosane"	756.52	9.09	1241.5	0.768
"62127-11-1"	"1,1-difluorodocosane"	766.65	8.59	1297.5	0.748
"62127-12-2"	"1,1-difluorotricosane"	778.63	8.13	1353.5	0.721
"62127-13-3"	"1,1-difluorotetracosane"	788.81	7.7	1409.5	
"62127-14-4"	"1,1-difluoropentacosane"	800.89	7.3	1465.5	
"62127-15-5"	"1,1-difluorohexacosane"	812.45	6.94	1521.5	
"62127-16-6"	"1,1-difluoroheptacosane"	824.74	6.6	1577.5	
"62127-17-7"	"1,1-difluorooctacosane"	836.58	6.29	1633.5	
"62127-18-8"	"1,1-difluorononacosane"	849.23	6	1689.5	
"62127-19-9"	"1,1-difluorotriacontane"	862.72	5.72	1745.5	
"62127-20-2"	"1,1-difluorohentriacontane"	877.11	5.47	1801.5	
"62127-21-3"	"1,1-difluorodotriacontane"	891.19	5.23	1857.5	
"62127-22-4"	"1,1-difluorotritriacontane"	906.25	5.01	1913.5	
"62127-23-5"	"1,1-difluorotetratriacontane"	922.37	4.8	1969.5	
"62127-24-6"	"1,1-difluoropentatriacontane"	939.61	4.6	2025.5	
"62127-25-7"	"1,1-difluorohexatriacontane"	958.04	4.42	2081.5	
"62127-26-8"	"1,1-difluoroheptatriacontane"	976.45	4.25	2137.5	
"62127-27-9"	"1-fluoro-2-methylpentane"	522.41	29.83	383.5	0.342
"62127-28-0"	"1-fluoro-3-methylpentane"	529.76	29.83	383.5	0.342
"62127-29-1"	"1-fluoro-4-methylpentane"	525.35	29.83	383.5	0.342
"62127-30-4"	"2-fluoro-2-methylpentane"	523.26	30.19	378.5	0.282
"62127-31-5"	"2-fluoro-3-methylpentane"	519	30.09	377.5	0.313
"62127-32-6"	"2-fluoro-4-methylpentane"	519	30.09	377.5	0.313
"62127-33-7"	"3-fluoro-2-methylpentane"	511.81	30.09	377.5	0.313
"62127-34-8"	"1-fluoro-2,2-dimethylbutane"	514.83	29.83	383.5	0.342
"62127-35-9"	"1-fluoro-2,3-dimethylbutane"	529.46	30.19	378.5	0.282
"62127-40-6"	"1,1-difluoropentane"	498.4	29.5	343	0.38
"62127-41-7"	"1,1-difluorohexane"	529	26.8	398	0.401
"62127-42-8"	"1,1-difluorononane"	602.2	20.8	563	0.483
"62127-43-9"	"1,1-difluorodecane"	622	19.2	618	0.512
"62127-44-0"	"1,1-difluoroundecane"	640.2	17.8	673	0.541
"62127-45-1"	"1,1-difluorododecane"	656.9	16.5	728	0.557
"62127-46-2"	"1,3,3-tribromobutane"	684.47	52.82	434.5	0.495
"62127-47-3"	"2,3,3-tribromobutane"	721.95	53.44	428.5	0.462
"62127-48-4"	"1,3-dibromo-2-(bromomethyl)propane"	724.93	51.98	439.5	0.565
"62127-49-5"	"1,1,1,2-tetrabromopropane"	788.99	69.1	434.5	0.552
"62127-50-8"	"1,1,1,3-tetrabromopropane"	797.25	68.19	440.5	0.587
"62127-51-9"	"1-iodononadecane"	820.94	11.74	1118.5	1
"62127-52-0"	"1-iodoheneicosane"	846.44	10.34	1230.5	0.93
"62127-53-1"	"1-iododocosane"	858.41	9.73	1286.5	0.883
"62127-54-2"	"1-iodotricosane"	872.37	9.17	1342.5	0.828
"62127-55-3"	"1-iodotetracosane"	885.88	8.66	1398.5	0.767
"62127-56-4"	"1-iodopentacosane"	899	8.19	1454.5	0.7
"62127-57-5"	"1-iodoheptacosane"	920.45	7.36	1566.5	
"62127-58-6"	"1,1-dibromo-2-methylbutane"	659.19	41.95	427.5	0.448
"62127-59-7"	"1,1-dibromo-3-methylbutane"	659.19	41.95	427.5	0.448
"62127-60-0"	"2,2-dibromo-3-methylbutane"	666.02	42.55	422.5	0.382
"62127-61-1"	"1,1,1-tribromopropane"	710.72	61.04	378.5	0.451
"62127-62-2"	"1,1,1-tribromobutane"	723.31	52.82	434.5	0.495
"62127-63-3"	"1,1,1-tribromohexane"	746.32	40.67	546.5	0.586
"62127-64-4"	"1,1,1-tribromoheptane"	756.89	36.12	602.5	0.632
"62127-65-5"	"1,1,1-tribromooctane"	767.84	32.28	658.5	0.676
"62127-66-6"	"1,1,1-tribromononane"	777.84	29.03	714.5	0.72
"62127-67-7"	"1,1,1-tribromodecane"	786.93	26.24	770.5	0.762
"62127-68-8"	"1,1,1-tribromoundecane"	795.21	23.84	826.5	0.802
"62127-69-9"	"1,1,1-tribromododecane"	804.01	21.75	882.5	0.839
"62127-70-2"	"1,1,1-tribromotridecane"	813.37	19.93	938.5	0.873
"62127-71-3"	"1,1,1-tribromopentadecane"	829.92	16.91	1050.5	0.927
"62127-72-4"	"1,1,1-tribromohexadecane"	838.47	15.65	1106.5	0.947
"62127-73-5"	"1,1,1-tribromoheptadecane"	847.65	14.52	1162.5	0.96
"62127-74-6"	"1,1,1-tribromooctadecane"	856.21	13.52	1218.5	0.966
"62127-75-7"	"1,1,1-tribromononadecane"	864.19	12.61	1274.5	0.964
"62127-76-8"	"1,1,1-tribromoeicosane"	874.1	11.79	1330.5	0.955
"62154-74-9"	"3-iodo-1-butene"	625.42	40.36	322.5	0.223
"62154-77-2"	"m-ethylthiophenol"	724.15	38.77	429.5	0.374
"62154-80-7"	"1-iodooctacosane"	943.74	6.99	1622.5	
"62154-81-8"	"1-iodononacosane"	959.36	6.65	1678.5	
"62154-82-9"	"1-iodotriacontane"	976.04	6.33	1734.5	
"62154-83-0"	"1-iododotriacontane"	1011.61	5.76	1846.5	
"62154-84-1"	"1-iodotritriacontane"	1031.91	5.51	1902.5	
"62154-85-2"	"1-iodotetratriacontane"	1052.3	5.42	1958.5	
"62154-86-3"	"1-iodopentatriacontane"	1074.15	5.04	2014.5	
"62154-87-4"	"1-iodohexatriacontane"	1096.24	4.83	2070.5	
"62154-88-5"	"1-iodoheptatriacontane"	1121.36	4.63	2126.5	
"62154-89-6"	"1-iodooctatriacontane"	1146.96	4.45	2182.5	
"62154-90-9"	"1-iodononatriacontane"	1174.54	4.27	2238.5	
"62154-91-0"	"1-iodotetracontane"	1204.29	4.11	2294.5	
"62154-92-1"	"trans-1-iodo-1-butene"	623.09	40.47	327.5	0.242
"62155-02-6"	"2-undecanethiol"	706	20	692	0.563
"62155-03-7"	"2-tridecanethiol"	734	17	802	0.635
"62155-04-8"	"2-tetradecanethiol"	746	16	857	0.683
"62155-05-9"	"2-pentadecanethiol"	757	15	912	0.727
"62155-06-0"	"2-octadecanethiol"	787	12	1077	0.811
"62155-07-1"	"1-nonadecanethiol"	805.29	11.28	1153.5	0.807
"62155-08-2"	"2-eicosanethiol"	803	10	1187	0.833
"62155-09-3"	"2-thiapentadecane"	762.23	15.44	873.5	0.7
"62155-10-6"	"2-thiaheptadecane"	787.27	13.35	985.5	0.754
"62155-11-7"	"2-thianonadecane"	790	11	1085	0.999
"62155-12-8"	"2-thiaheneicosane"	832.33	10.27	1209.5	0.795
"62155-14-0"	"1,1-diphenyltridecane"	838	12.8	1344	0.863
"62155-15-1"	"1,1-diphenylpentadecane"	846.7	11.7	1487	0.922
"62155-16-2"	"2',3'-dimethyldiphenylmethane"	792.88	24.36	659.5	0.521
"62155-19-5"	"1,1-dicyclohexylnonane"	805.09	12.54	1077.5	0.68
"62155-20-8"	"1,1-dicyclohexyldecane"	812.16	11.73	1133.5	0.702
"62155-21-9"	"1,1-dicyclohexylundecane"	818.57	10.99	1189.5	0.719
"62155-22-0"	"1,1-dicyclohexyltridecane"	833.34	9.72	1301.5	0.734
"62155-23-1"	"1,1-dicyclohexylpentadecane"	848.27	8.65	1413.5	0.721
"62155-25-3"	"1,1,1-tribromotetradecane"	821.99	18.33	994.5	0.903
"62155-37-7"	"1,1-diphenyl-1-tridecene"	863.24	11.9	1200.5	0.795
"62155-38-8"	"1,1-diphenyl-1-tetradecene"	868.99	11.15	1256.5	0.804
"62155-39-9"	"1,1-diphenyl-1-pentadecene"	875.43	10.47	1312.5	0.805
"62168-03-0"	"1,1-dibromotetracosane"	889.11	8.77	1497.5	0.796
"62168-04-1"	"1,1-dibromopentacosane"	901.35	8.3	1553.5	0.75
"62168-05-2"	"1,1-dibromohexacosane"	911.94	7.86	1609.5	
"62168-06-3"	"1,1-dibromoheptacosane"	924.58	7.45	1665.5	
"62168-07-4"	"1,1-dibromooctacosane"	936.86	7.07	1721.5	
"62168-08-5"	"1,1-dibromononacosane"	950.04	6.73	1777.5	
"62168-09-6"	"1,1-dibromotriacontane"	964.17	6.4	1833.5	
"62168-10-9"	"1,1-dibromohentriacontane"	979.29	6.1	1889.5	
"62168-11-0"	"1,1-dibromodotriacontane"	994.22	5.82	1945.5	
"62168-12-1"	"1,1-dibromotritriacontane"	1010.24	5.56	2001.5	
"62168-13-2"	"1,1-dibromotetratriacontane"	1027.44	5.32	2057.5	
"62168-15-4"	"1,1-dibromohexatriacontane"	1064.34	4.88	2169.5	
"62168-16-5"	"1,1-dibromoheptatriacontane"	1085.52	4.68	2225.5	
"62168-17-6"	"1,1-dibromooctatriacontane"	1106.9	4.49	2281.5	
"62168-18-7"	"1,1-dibromononatriacontane"	1129.91	4.31	2337.5	
"62168-19-8"	"1,1-dibromotetracontane"	1154.67	4.14	2393.5	
"62168-25-6"	"1,1-dibromobutane"	646.82	47.17	377.5	0.435
"62168-26-7"	"1,1-dibromooctane"	716.02	29.54	601.5	0.616
"62168-27-8"	"1,1-dibromononane"	729.44	26.68	657.5	0.659
"62168-28-9"	"1,1-dibromoundecane"	754.56	22.08	769.5	0.741
"62168-29-0"	"1,1-dibromododecane"	766.37	20.22	825.5	0.779
"62168-30-3"	"1,1-dibromotridecane"	777.32	18.58	881.5	0.813
"62168-31-4"	"1,1-dibromotetradecane"	787.47	17.13	937.5	0.843
"62168-32-5"	"1,1-dibromopentadecane"	798.14	15.85	993.5	0.869
"62168-33-6"	"1,1-dibromohexadecane"	808.08	14.7	1049.5	0.889
"62168-34-7"	"1,1-dibromoheptadecane"	818.59	13.68	1105.5	0.904
"62168-35-8"	"1,1-dibromooctadecane"	828.45	12.76	1161.5	0.911
"62168-36-9"	"1,1-dibromononadecane"	837.69	11.92	1217.5	0.912
"62168-37-0"	"1,1-dibromoeicosane"	847.57	11.17	1273.5	0.905
"62168-38-1"	"1,1-dibromoheneicosane"	858.13	10.49	1329.5	0.889
"62168-39-2"	"1,1-dibromodocosane"	868.14	9.86	1385.5	0.866
"62168-40-5"	"1,1-dibromotricosane"	878.87	9.3	1441.5	0.835
"62168-41-6"	"2-bromo-3-methylpentane"	594.59	34.24	421.5	0.373
"62168-42-7"	"1-bromo-2,2-dimethylbutane"	601.65	33.92	427.5	0.404
"62183-50-0"	"2,5-dimethyl-6-ethyloctane"	640.25	18.17	689.5	0.491
"62183-51-1"	"2,6-dimethyl-3-ethyloctane"	640.25	18.17	689.5	0.491
"62183-52-2"	"2,6-dimethyl-4-ethyloctane"	630.72	18.17	689.5	0.491
"62183-53-3"	"2,6-dimethyl-5-ethyloctane"	637.53	18.17	689.5	0.491
"62183-54-4"	"2,6-dimethyl-6-ethyloctane"	645.29	18.22	690.5	0.461
"62183-55-5"	"2,7-dimethyl-3-ethyloctane"	638.89	18.17	689.5	0.491
"62183-56-6"	"2,7-dimethyl-4-ethyloctane"	630.72	18.17	689.5	0.491
"62183-57-7"	"3,3-dimethyl-4-ethyloctane"	645.29	18.22	690.5	0.461
"62183-58-8"	"3,3-dimethyl-5-ethyloctane"	635.7	18.22	690.5	0.461
"62183-59-9"	"3,3-dimethyl-6-ethyloctane"	642.55	18.22	690.5	0.461
"62183-60-2"	"3,4-dimethyl-4-ethyloctane"	649.4	18.22	690.5	0.461
"62183-61-3"	"3,4-dimethyl-5-ethyloctane"	641.61	18.17	689.5	0.491
"62183-62-4"	"3,4-dimethyl-6-ethyloctane"	641.61	18.17	689.5	0.491
"62183-63-5"	"3,5-dimethyl-3-ethyloctane"	642.55	18.22	690.5	0.461
"62183-64-6"	"3,5-dimethyl-4-ethyloctane"	640.25	18.17	689.5	0.491
"62183-65-7"	"3,5-dimethyl-5-ethyloctane"	634.33	18.22	690.5	0.461
"62183-66-8"	"3,5-dimethyl-6-ethyloctane"	640.25	18.17	689.5	0.491
"62183-67-9"	"3,6-dimethyl-3-ethyloctane"	646.66	18.22	690.5	0.461
"62183-68-0"	"3,6-dimethyl-4-ethyloctane"	638.89	18.17	689.5	0.491
"62183-69-1"	"4,4-dimethyl-3-ethyloctane"	645.29	18.22	690.5	0.461
"62183-70-4"	"4,4-dimethyl-5-ethyloctane"	642.55	18.22	690.5	0.461
"62183-71-5"	"4,4-dimethyl-6-ethyloctane"	635.7	18.22	690.5	0.461
"62183-72-6"	"4,5-dimethyl-3-ethyloctane"	642.97	18.17	689.5	0.491
"62183-73-7"	"4,5-dimethyl-4-ethyloctane"	648.03	18.22	690.5	0.461
"62183-74-8"	"2,2,3,3-tetramethyloctane"	655.89	18.39	685.5	0.403
"62183-75-9"	"2,2,3,4-tetramethyloctane"	645.03	18.34	684.5	0.432
"62183-76-0"	"2,2,3,5-tetramethyloctane"	640.89	18.34	684.5	0.432
"62183-77-1"	"2,2,3,6-tetramethyloctane"	643.65	18.34	684.5	0.432
"62183-78-2"	"2,2,3,7-tetramethyloctane"	643.65	18.34	684.5	0.432
"62183-79-3"	"2,2,4,4-tetramethyloctane"	644.8	18.39	685.5	0.403
"62183-80-6"	"2,2,4,5-tetramethyloctane"	634	18.34	684.5	0.432
"62183-81-7"	"2,2,4,6-tetramethyloctane"	631.25	18.34	684.5	0.432
"62183-82-8"	"2,2,4,7-tetramethyloctane"	630.97	18.34	684.5	0.432
"62183-83-9"	"2,2,5,5-tetramethyloctane"	633.71	18.39	685.5	0.403
"62183-84-0"	"2,2,5,6-tetramethyloctane"	638.14	18.34	684.5	0.432
"62183-85-1"	"4-methyl-5-propyloctane"	635.31	18.05	695.5	0.519
"62183-86-2"	"2-methyl-4-isopropyloctane"	630.72	18.17	689.5	0.491
"62183-87-3"	"2-methyl-5-isopropyloctane"	632.08	18.17	689.5	0.491
"62183-88-4"	"3-methyl-4-isopropyloctane"	637.53	18.17	689.5	0.491
"62183-89-5"	"3-methyl-5-isopropyloctane"	633.44	18.17	689.5	0.491
"62183-90-8"	"4-methyl-4-isopropyloctane"	645.29	18.22	690.5	0.461
"62183-91-9"	"4-methyl-5-isopropyloctane"	636.16	18.17	689.5	0.491
"62183-92-0"	"3,4-diethyloctane"	639.37	18.05	695.5	0.519
"62183-93-1"	"3,5-diethyloctane"	636.66	18.05	695.5	0.519
"62183-94-2"	"3,6-diethyloctane"	643.43	18.05	695.5	0.519
"62183-95-3"	"2,2-dimethyl-3-ethyloctane"	642.55	18.22	690.5	0.461
"62183-96-4"	"2,2-dimethyl-4-ethyloctane"	630.23	18.22	690.5	0.461
"62183-97-5"	"2,2-dimethyl-5-ethyloctane"	632.97	18.22	690.5	0.461
"62183-98-6"	"2,2-dimethyl-6-ethyloctane"	638.44	18.22	690.5	0.461
"62183-99-7"	"2,3-dimethyl-3-ethyloctane"	650.77	18.22	690.5	0.461
"62184-00-3"	"2,3-dimethyl-4-ethyloctane"	640.25	18.17	689.5	0.491
"62184-01-4"	"2,3-dimethyl-5-ethyloctane"	636.16	18.17	689.5	0.491
"62184-02-5"	"2,3-dimethyl-6-ethyloctane"	642.97	18.17	689.5	0.491
"62184-03-6"	"2,4-dimethyl-3-ethyloctane"	640.25	18.17	689.5	0.491
"62184-04-7"	"2,4-dimethyl-4-ethyloctane"	635.7	18.22	690.5	0.461
"62184-05-8"	"2,4-dimethyl-5-ethyloctane"	634.8	18.17	689.5	0.491
"62184-06-9"	"2,4-dimethyl-6-ethyloctane"	633.44	18.17	689.5	0.491
"62184-07-0"	"2,5-dimethyl-3-ethyloctane"	636.16	18.17	689.5	0.491
"62184-08-1"	"2,5-dimethyl-4-ethyloctane"	633.44	18.17	689.5	0.491
"62184-09-2"	"2,5-dimethyl-5-ethyloctane"	638.44	18.22	690.5	0.461
"62184-10-5"	"2,4,6-trimethylnonane"	633.44	18.17	689.5	0.491
"62184-11-6"	"2,4,7-trimethylnonane"	636.16	18.17	689.5	0.491
"62184-12-7"	"2,5,5-trimethylnonane"	634.33	18.22	690.5	0.461