"CASRN"	"Chemical"	"Tc"	"Pc"	"Vc"	"omega"
"100-00-5"	"p-chloronitrobenzene"	751	39.8	432	0.491
"100-01-6"	"p-nitroaniline"	851	44.2	406	0.782
"100-10-7"	"p-dimethylaminobenzaldehyde"	832	30.7	471	0.527
"100-18-5"	"p-diisopropylbenzene"	689	24.5	598	0.39
"100-21-0"	"terephthalic acid"	1113	39.5	424	1.059
"100-25-4"	"p-dinitrobenzene"	803	38.5	434	0.662
"100-36-7"	"N,N-diethyl-1,2-ethanediamine"	663	38.1	408.4	0.65
"100-37-8"	"2-diethylaminoethanol"	592	31.8	401	0.782
"100-39-0"	"(bromomethyl)benzene"	699	43.7	379	0.318
"100-40-3"	"vinylcyclohexene"	599	34.3	379	0.329
"100-41-4"	"ethylbenzene"	617.15	36.09	374	0.304
"100-42-5"	"styrene"	636	38.4	352	0.297
"100-44-7"	"benzyl chloride"	686	39.1	360	0.314
"100-46-9"	"benzylamine"	684	43.2	373	0.401
"100-47-0"	"benzonitrile"	699.35	42.15	313.2	0.366
"100-50-5"	"3-cyclohexene-1-carboxaldehyde"	655	40.3	345	0.364
"100-51-6"	"benzyl alcohol"	720.15	45.5	335	0.367
"100-52-7"	"benzaldehyde"	695	46.5	324	0.313
"100-53-8"	"benzenemethanethiol"	712	40.6	367	0.299
"100-54-9"	"3-pyridinecarbonitrile"	703	41.2	344	0.422
"100-60-7"	"N-methylcyclohexylamine"	622	34.9	393	0.386
"100-61-8"	"N-methylaniline"	701.55	52	373	0.475
"100-63-0"	"phenylhydrazine"	761	49.1	418	0.535
"100-64-1"	"cyclohexanone oxime"	715	46.9	369	0.462
"100-66-3"	"anisole"	645.6	42.5	337	0.35
"100-68-5"	"methyl phenyl sulfide"	710.76	42.06	373.5	0.327
"100-71-0"	"2-ethylpyridine"	636.2	39.8	367	0.357
"100-80-1"	"m-methylstyrene"	657	32.9	407	0.349
"100-97-0"	"methenamine"	837	36.8	402	0.299
"1000-86-8"	"2,4-dimethyl-1,3-pentadiene"	556	34.5	347.8	
"1000-87-9"	"2,4-dimethyl-2,3-pentadiene"	556	34.5	347.8	
"1001-89-4"	"2-chloroheptane"	621.08	26.93	476.5	0.418
"1002-17-1"	"2,9-dimethyldecane"	646.14	18.05	695.5	0.519
"1002-43-3"	"3-methylundecane"	655	18.7	693	0.552
"1002-69-3"	"1-chlorodecane"	679.88	20.38	644.5	0.547
"1002-84-2"	"pentadecanoic acid"	775	16	864	0.959
"10020-43-6"	"2-(octyloxy)ethanol"	672	23.4	624.5	
"10022-50-1"	"nitryl fluoride"	349.5	61.16	109.82	
"10024-78-9"	"4-ethyl-1-methyloctylamine"	664.56	19.66	677.9	0.606
"10024-97-2"	"nitrous oxide"	309.57	72.45	97.4	0.1408
"10025-67-9"	"sulfur monochloride"	659.37	62.75	239.38	0.272
"10025-71-5"	"tellurium dichloride"	1021.54	177.03	125.69	
"10025-78-2"	"silane, trichloro"	479	41.7	268	0.203
"10025-85-1"	"nitrogen trichloride"	564	104	206.9	0.199
"10025-87-3"	"phosphorus oxychloride"	602.15	34.4	201	0.0832
"10025-91-9"	"antimony trichloride"	794	48.2	272	0.171
"10026-01-4"	"osmium (IV) chloride"	1357.65	0	0	
"10026-03-6"	"selenium tetrachloride"	743.95	61.05	277.61	0.269
"10026-04-7"	"silicon tetrachloride"	507	35.9	326	0.2318
"10026-07-0"	"tellurium tetrachloride"	1002	85.6	310	0.326
"10026-10-5"	"uranium (IV) chloride"	1661.19	103.65	349.11	
"10026-11-6"	"zirconium chloride"	778	57.7	319	0.298
"10026-12-7"	"niobium (V) chloride"	803.5	48.8	397	
"10026-13-8"	"phosphorus pentachloride"	646.15	58.15	277.16	0.531
"10028-15-6"	"ozone"	261	55.7	89	0.2119
"10028-17-8"	"tritium"	44.91	23.8	41.11	
"10028-18-9"	"nickel fluoride"	3278.75	270.37	302.5	0.654
"100295-82-7"	"2-methyl-3-hexanol, (±)"	587.2	31.51	434.1	0.709
"100295-83-8"	"5-methyl-3-hexanol, (±)"	587.2	31.51	434.1	0.709
"100295-85-0"	"6-methyl-3-heptanol, (±)"	600.92	28.49	488	0.733
"100296-26-2"	"2-methyl-3-heptanol, (±)"	600.92	28.49	488	0.733
"1003-03-8"	"cyclopentylamine"	584	46.4	308	0.329
"1003-17-4"	"2,2-dimethyltetrahydrofuran"	563.41	40.16	331.5	0.269
"1003-19-6"	"1,1-diethylcyclopropane"	530	33	375.9	
"1003-30-1"	"2-ethyltetrahydrofuran"	580.07	37.96	333.5	0.308
"1003-38-9"	"2,5-dimethyltetrahydrofuran"	556.78	36.47	332.5	0.282
"1003-90-3"	"2,3,4,5-tetramethyl-1H-pyrrole"	670	37.5	390	
"10031-22-8"	"lead bromide"	1933.47	159.43	302.5	0.498
"10031-24-0"	"tin (II) bromide"	1466.09	139.11	229.58	
"10031-87-5"	"2-ethylbutyl acetate"	618	25.4	494	0.54
"10032-13-0"	"hexyl isopentanoate"	652	20.47	658.7	0.639
"10032-15-2"	"hexyl sec-pentanoate"	652	20.47	658.7	0.639
"10034-85-2"	"hydrogen iodide"	423.85	83.1	121.9	0.0381
"10035-10-6"	"hydrogen bromide"	363.15	85.52	100.26	0.0693
"10036-47-2"	"tetrafluorohydrazine"	309.35	37.1	213	0.2233
"10038-98-9"	"germanium chloride"	553.2	38.61	330	0.123
"1004-77-9"	"2-isopropylcyclohexanone"	690	29.5	474.6	
"10042-59-8"	"2-propyl-1-heptanol"	643.4	23.16	608.5	0.883
"10043-35-3"	"boric acid"	289.8	40.53	173.11	0.1254
"10043-52-4"	"calcium chloride"	3620	0	0	
"10043-92-2"	"radon"	377	62.8	140	
"10049-04-4"	"chlorine dioxide"	465	86.13	97.83	0.3564
"10049-06-6"	"titanium (II) chloride"	2906.02	335.86	188.47	
"10049-14-6"	"uranium (IV) fluoride"	2686.76	292.77	199.9	
"10049-17-9"	"rhenium (VI) fluoride"	472.97	0	0	
"1005-64-7"	"trans-(1-butenyl)benzene"	692.76	31.04	467.5	0.366
"1006-59-3"	"2,6-diethylphenol"	699.96	33.76	421.5	0.541
"10061-01-5"	"cis-1,3-dichloropropene"	577	43.8	277	0.206
"10061-02-6"	"trans-1,3-dichloropropene"	577	43.8	277	0.206
"1007-26-7"	"1-phenyl-2,2-dimethylpropane"	667.65	27.01	532.5	0.351
"10071-60-0"	"1-chloro-2-pentene"	561.69	35.41	343.2	0.275
"10075-38-4"	"cis-1,3-dichloro-2-butene"	640	37.98	332	0.302
"10076-31-0"	"dimethyl-2,2-dimethylpropylamine"	574.03	29.76	454.5	0.344
"10086-50-7"	"2-(isobutyl-3-methylbutoxy)ethanol"	690	21	711.8	
"10086-64-3"	"1-fluoro-2-methylbutane"	494.45	33.22	327.5	0.298
"101-54-2"	"p-aminodiphenylamine"	867	31.9	596	0.694
"101-68-8"	"diphenylmethane-4,4'-diisocyanate"	802	22.8	712	0.95
"101-81-5"	"diphenylmethane"	760	27.1	563	0.482
"101-83-7"	"dicyclohexylamine"	737	25.2	619	0.513
"101-84-8"	"diphenyl ether"	766.8	30.8	503	0.439
"10101-63-0"	"lead iodide"	1865.07	153.79	302.5	0.487
"10102-03-1"	"nitrogen pentoxide"	515.51	64.33	182.56	0.266
"10102-06-4"	"uranyl nitrate"	510.39	29.49	377.05	
"10102-43-9"	"nitric oxide"	180.15	64.8	58	0.5829
"10102-44-0"	"nitrogen dioxide"	431.15	101.33	82.49	0.8511
"10108-64-2"	"cadmium chloride"	2019.79	166.55	302.5	0.511
"10112-91-1"	"mercury (I) chloride"	1115	206.73	117.49	
"1012-72-2"	"1,4-di-tert-butylbenzene"	708	23	732	0.502
"10124-73-9"	"2-chloro-1-hexene"	583.61	31.6	400.5	0.341
"101257-63-0"	"1-chloro-3-methylhexane"	621.08	26.93	476.5	0.418
"10130-91-3"	"2,2,6-trimethylcyclohexanol"	655	33.9	478.8	
"10136-52-4"	"9-heptadecenoic acid"	916	16	1000.7	
"10136-83-1"	"1-methyl-6-isopropylnaphthalene"	817.54	24.8	627.5	0.507
"10137-80-1"	"N-(2-ethylhexyl)aniline"	730	21	755.9	
"10137-96-9"	"ethylene glycol mono-2-methylpentyl ether"	636	26.4	525.9	
"10138-47-3"	"2-(1-ethylamyloxy)ethanol"	654	26.4	540.7	
"10138-87-1"	"2-(2-(1-ethylamyloxy)ethoxy)ethanol"	690	21	711.8	
"1014-60-4"	"1,3-di-tert-butylbenzene"	712.89	19.53	709.4	0.565
"10143-20-1"	"2,8-dimethyl-6-isobutylnonanol-4"	732.87	15.65	886.3	0.871
"10143-23-4"	"2,3-dimethyl-1-pentanol"	599.26	31.49	434.5	0.731
"10143-60-9"	"bis(2-ethylhexyl) ether"	707	14.4	910	0.934
"101654-30-2"	"3-chloro-2,3-dimethylhexane"	642.41	24.43	532.5	0.462
"10192-32-2"	"1-tetracosene"	814.11	8.26	1360.5	0.721
"10192-93-5"	"3,4-dimethyl-3,4-diphenylhexane"	810	16.7	1014	0.698
"101935-28-8"	"3,5-dimethyl-2,4-heptadiene"	616	32.8	400.7	
"101947-30-2"	"1,1 difluorodisulfane"	434.64	56.55	167.42	
"102-01-2"	"acetoacetanilide"	879	30.3	564	0.795
"102-25-0"	"1,3,5-triethylbenzene"	678	23	593	0.508
"102-27-2"	"N-ethyl-3-methylaniline"	705.58	32.84	482	0.413
"102-36-3"	"3,4-dichlorophenyl isocyanate"	733	33.3	456	0.335
"102-47-6"	"1,2-dichloro-4-(chloromethyl)benzene"	737	33.4	447	0.26
"102-53-4"	"N,N,N',N'-tetraethylmethanediamine"	741	28.5	597.4	
"102-69-2"	"tripropylamine"	577.5	22.3	576	0.699
"102-70-5"	"N,N-diallyl-2-propeN-1-amine"	592	24.6	521	0.499
"102-71-6"	"triethanolamine"	772.1	27.43	472	1.284
"102-76-1"	"glyceryl triacetate"	704	23.1	625	0.839
"102-81-8"	"2-dibutylaminoethanol"	770	27	601.4	
"102-82-9"	"tributylamine"	644	18	735	0.694
"102-86-3"	"trihexylamine"	673.74	11.83	1081.5	0.804
"102-87-4"	"tridodecylamine"	928.54	4.65	2089.5	
"102-88-5"	"trioctadecylamine"	1229.51	3.24	2922.6	
"10203-28-8"	"2-dodecanol"	704.8	20.1	713	0.631
"10203-30-2"	"3-dodecanol"	712.9	19.7	704.5	0.635
"10215-33-5"	"3-butoxy-1-propanol"	618	29.4	460.6	
"10222-95-4"	"1,2,4-trimethyl-5-isopropylbenzene"	697.15	23.61	602	0.437
"10233-13-3"	"isopropyl dodecanoate"	708	15.8	842.1	
"102370-18-3"	"1-ethyl-2-methylcyclohexanol"	655	33.9	478.8	
"10241-05-1"	"molybdenum (V) chloride"	850	47.2	369	
"102449-95-6"	"3-chloro-2,2,3-trimethylhexane"	661.88	22.27	588.5	0.505
"10250-47-2"	"3-methyl-3-pentyl acetate"	618	25.4	494	0.54
"10250-52-9"	"1,1-diiodopropane"	708.27	42.06	373.5	0.243
"10250-55-2"	"1,1-diiodo-2-methylpropane"	732.32	37.64	423.5	0.258
"10276-09-2"	"2,2-dimethyl-3-butenoic acid"	696	33	389.4	
"10288-13-8"	"1,2-dibromo-3-methylbutane"	659.19	41.95	427.5	0.448
"10289-68-6"	"3-tridecanol"	724.8	18.35	758.5	0.642
"10294-33-4"	"boron tribromide"	581	48.66	272	0.216
"10294-34-5"	"boron trichloride"	451.95	38.71	148.3	0.1505
"10294-48-1"	"chlorine heptoxide"	565.78	50.9	253.23	0.2
"10294-70-9"	"tin (II) iodide"	1635.64	132.69	268.52	
"10297-57-1"	"2-methyl-2-nonanol"	643.93	23.41	603.5	0.819
"103-08-2"	"5-ethyl-2-nonanol"	696.85	21.3	650.5	0.596
"103-09-3"	"2-ethylhexyl acetate"	642.4	21.7	600	0.599
"103-11-7"	"2-ethylhexyl acrylate"	655	20.7	664	0.673
"103-23-1"	"bis(2-ethylhexyl) adipate"	845	11.2	1260	1.06
"103-29-7"	"1,2-diphenylethane"	780	26.5	616	0.488
"103-30-0"	"trans-stilbene"	820	27.4	607	0.487
"103-44-6"	"2-ethylhexyl vinyl ether"	636	25	528.2	
"103-50-4"	"dibenzyl ether"	777	25.6	608	0.591
"103-65-1"	"propylbenzene"	638.35	32	440	0.344
"103-69-5"	"N-ethylaniline"	698.55	35.8	426	0.415
"103-70-8"	"formanilide"	787	41.1	382	0.545
"103-71-9"	"phenyl isocyanate"	653	40.6	370	0.412
"103-73-1"	"phenetole"	647.15	34.2	390	0.418
"103-76-4"	"1-piperazineethanol"	711	40.3	386	0.833
"103-84-4"	"acetanilide"	825	37.3	430	0.565
"103-90-2"	"N-(4-hydroxyphenyl)acetamide"	736	42.6	452	0.8
"10307-61-6"	"ethyl 2-methylbutanoate, (+)"	584	27.65	444.5	0.456
"10321-71-8"	"4-methyl-2-pentenoic acid"	696	33	389.4	
"10339-67-0"	"5-methyl-5-hepteN-2-one"	635	31.6	451.8	
"10340-23-5"	"cis-3-noneN-1-ol"	629.65	24.67	533.8	0.541
"10342-97-9"	"methyldiisopropylamine"	561.82	29.67	453.5	0.376
"10359-64-5"	"3-methyl-2-thiapentane"	585	34	370	0.266
"10377-51-2"	"lithium iodide"	2370	170	302.5	0.457
"10377-60-3"	"magnesium nitrate"	989	0	0	
"104-01-8"	"4-methoxybenzeneacetic acid"	768	39	470	0.898
"104-13-2"	"4-butylaniline"	690	29.85	525.5	0.69
"104-40-5"	"4-nonylphenol"	738.5	20.9	757	0.793
"104-43-8"	"4-dodecylphenol"	770	17	854.9	
"104-46-1"	"anethole"	723	29	482	0.485
"104-51-8"	"butylbenzene"	660.5	28.9	497	0.394
"104-57-4"	"benzyl formate"	698	35.9	397	0.42
"104-72-3"	"decylbenzene"	753	17.7	813	0.68
"104-75-6"	"2-ethylhexylamine"	601.45	26.52	517.6	0.5
"104-76-7"	"2-ethyl-1-hexanol"	640.6	28	485	0.556
"104-78-9"	"N,N-diethyl-1,3-propanediamine"	689	34.5	465.4	
"104-79-0"	"N,N-diethyl-N'-methylethylenediamine"	689	34.5	465.4	
"104-83-6"	"1-chloro-4-(chloromethyl)benzene"	710	36.2	404	0.343
"104-87-0"	"p-tolualdehyde"	698	36.7	416	0.442
"10403-60-8"	"2,3,3-trichlorobutane"	633.36	35.18	389.5	0.271
"104035-66-7"	"4-ethyl-6-methyl-5-hepteN-2-one"	675	25.6	584.2	
"10405-27-3"	"difluoramine"	403	99.51	89.06	
"104177-72-2"	"4-isopentylaniline"	700	27.5	566.1	
"10422-35-2"	"1-bromo-2-methylbutane"	590.01	38.06	371.5	0.359
"10424-38-1"	"1,2-propanediamine, (±)"	587	52.7	266.9	0.474
"10428-64-5"	"1,2-dibromo-2-methylbutane"	665.93	42.11	428.5	0.414
"10435-81-1"	"2-octanethiol, (±)"	648	25.37	524.7	0.401
"10436-75-6"	"4-methyl-N-isopropylaniline"	690	29.85	525.5	0.69
"10473-14-0"	"3-methyl-3-buteN-2-ol"	573	45.5	258.4	
"10478-12-3"	"methyl 2-methyl-2-pentenoate"	592.33	28.3	428	0.432
"10486-19-8"	"1-tridecanal"	724	23.5	738	0.716
"10488-25-2"	"cis-2-isopropylcyclohexanol"	655	33.9	478.8	
"104934-52-3"	"3-dodecylthiophene"	815	17	979.6	
"10495-45-1"	"diisobutyl sulfone"	767	25.4	569	0.688
"10496-15-8"	"7,8-dithiatetradecane"	747.1	18.33	815.5	0.692
"10496-16-9"	"8,9-dithiahexadecane"	765.96	15.65	927.5	0.758
"10496-18-1"	"11,12-dithiadocosane"	820.08	10.38	1263.5	0.83
"105-04-4"	"N,N,N'-triethylethylenediamine"	715	31.5	525.3	
"105-05-5"	"p-diethylbenzene"	657.9	28.03	497	0.403
"105-08-8"	"1,4-cyclohexanedimethanol"	724	35.3	445	1.188
"105-30-6"	"2-methyl-1-pentanol"	604.4	34.5	380	0.51
"105-34-0"	"methyl cyanoacetate"	687	38.1	305	0.541
"105-37-3"	"ethyl propanoate"	546	33.62	345	0.394
"105-38-4"	"vinyl propanoate"	546	36.8	323	0.38
"105-39-5"	"ethyl chloroacetate"	618	37.9	327	0.393
"105-41-9"	"4-methyl-2-hexanamine"	565.35	29.19	459.3	0.409
"105-42-0"	"4-methyl-2-hexanone"	592.42	30.22	427.5	0.451
"105-43-1"	"3-methylpentanoic acid"	661	33.8	389	0.652
"105-45-3"	"methyl acetoacetate"	642	37.1	343	0.513
"105-46-4"	"sec-butyl acetate"	561	31.7	389	0.395
"105-53-3"	"diethyl malonate"	653	27.8	469	0.616
"105-54-4"	"ethyl butanoate"	571	29.5	403	0.401
"105-56-6"	"ethyl cyanoacetate"	679	33.4	358	0.558
"105-57-7"	"acetal"	539.7	32.2	402	0.487
"105-58-8"	"diethyl carbonate"	576	33.9	356	0.486
"105-59-9"	"methyl diethanolamine"	675	38.8	368	1.165
"105-60-2"	"epsiloN-caprolactam"	806	47.7	356	0.476
"105-66-8"	"propyl butanoate"	593.7	27.2	442	0.433
"105-67-9"	"2,4-xylenol"	707.65	44	390	0.514
"105-68-0"	"isopentyl propanoate"	611	25.5	497	0.462
"105-76-0"	"dibutyl maleate"	716	19	719	0.899
"105-79-3"	"isobutyl hexanoate"	637	22	600	0.579
"105-85-1"	"citronellyl formate"	672	22.5	578.4	
"10519-33-2"	"3-deceN-2-one"	675	25.6	584.2	
"10522-26-6"	"2-methyl-1-undecanol"	712.9	19.7	704.5	0.635
"10523-96-3"	"4-chloro-2-methyl-1-butene"	569.17	35.1	346.5	0.281
"10524-01-3"	"4-chloro-3-methyl-1-butene"	554.87	35.22	339.5	0.277
"10524-07-9"	"5-chloro-trans-2-pentene"	576.34	35.3	344.5	0.296
"10524-08-0"	"4-chloro-1-pentene"	562.47	35.22	339.5	0.277
"10524-70-6"	"3,3-dimethyl-1-hexanol"	616.63	28.44	491.5	0.738
"10524-71-7"	"3-methyl-3-ethyl-1-pentanol"	608.48	28.44	491.5	0.738
"10525-37-8"	"eicosylamine"	794.6	9.5	1170	0.98
"10544-63-5"	"ethyl 2-butenoate"	569	32.5	376	0.434
"10544-72-6"	"nitrogen tetraoxide"	431.15	101.33	82.49	0.8533
"10544-73-7"	"nitrogen trioxide"	425	69.9	195	0.4312
"10545-99-0"	"sulfur dichloride"	542	66.8	183	0.2561
"10557-44-5"	"2,5-dimethyl-cis3-hexene"	550.28	27.18	451.5	0.317
"10570-69-1"	"2,6-dimethyl-4-ethylphenol"	713.32	33.18	421.5	0.54
"10574-36-4"	"3-methyl-cis2-hexene"	549.51	29.76	408.5	0.307
"10574-37-5"	"2,3-dimethyl-2-pentene"	553.47	29.93	409.5	0.282
"10575-56-1"	"3,4,4-trimethyl-2-pentanol"	592.43	28.94	479.5	0.674
"10575-87-8"	"1,2-dichloroheptane"	654.02	26.14	519.5	0.442
"10580-52-6"	"vanadium (II) chloride"	1918.64	0	0	
"10588-10-0"	"2-methylpropyl pentanoate"	629	23.3	547	0.596
"106-18-3"	"N-butyl laurate"	721	15	875.6	
"106-20-7"	"bis(2-ethylhexyl)amine"	702	14.7	985	0.918
"106-21-8"	"3,7-dimethyl-1-octanol"	638.54	23.34	602.5	0.852
"106-22-9"	"citronellol"	656.59	22.36	601.5	0.612
"106-23-0"	"3,7-dimethyl-6-octenal"	670	22	582.3	
"106-27-4"	"3-methylbutyl butanoate"	619	23.3	500	0.694
"106-30-9"	"ethyl heptanoate"	629	23.3	547	0.596
"106-31-0"	"butyric anhydride"	644	26.4	501	0.655
"106-32-1"	"ethyl octanoate"	637	22	600	0.579
"106-33-2"	"ethyl laurate"	695	16.6	803.9	
"106-35-4"	"3-heptanone"	606.6	29.2	433	0.408
"106-36-5"	"propyl propanoate"	568.6	30.6	389	0.449
"106-37-6"	"p-dibromobenzene"	761	46.6	372	0.293
"106-38-7"	"p-bromotoluene"	699	43.7	379	0.318
"106-42-3"	"p-xylene"	616.2	35.11	378	0.322
"106-43-4"	"p-chlorotoluene"	660	39.1	360	0.312
"106-44-5"	"p-cresol"	704.65	51.5	277	0.513
"106-45-6"	"p-methylthiophenol"	716.03	43.86	373.5	0.329
"106-46-7"	"p-dichlorobenzene"	684.75	40.7	351	0.285
"106-47-8"	"p-chloroaniline"	754	45.9	364	0.421
"106-48-9"	"p-chlorophenol"	738	53.2	325	0.485
"106-49-0"	"p-toluidine"	693.15	40	346	0.472
"106-50-3"	"p-phenylenediamine"	796	51.8	317	0.539
"106-51-4"	"p-benzoquinone"	683	59.6	291	0.495
"106-63-8"	"isobutyl acrylate"	587	29.5	433	0.455
"106-65-0"	"dimethyl succinate"	657	32.8	424	0.622
"106-67-2"	"4-methyl-2-ethyl-1-pentanol"	607.39	28.35	490.5	0.773
"106-68-3"	"3-octanone"	624	26.4	469	0.528
"106-70-7"	"methyl hexanoate"	587.95	28.4	442	0.407
"106-72-9"	"2,6-dimethyl-5-heptenal"	650	26	480.1	
"106-73-0"	"methyl heptanoate"	602	26.1	494	0.395
"106-88-7"	"1,2-epoxybutane"	526	43.9	258	0.235
"106-89-8"	"α-epichlorohydrin"	615	49	233	0.252
"106-92-3"	"allyl glycidyl ether"	629	36.8	366	0.409
"106-93-4"	"1,2-dibromoethane"	650.15	54.77	261.6	0.207
"106-94-5"	"1-bromopropane"	544	53.9	266	0.285
"106-95-6"	"3-bromo-1-propene"	540.2	51.39	246.5	0.273
"106-97-8"	"butane"	425.12	37.96	255	0.2
"106-98-9"	"1-butene"	419.59	40.2	239.9	0.187
"106-99-0"	"butadiene (1,3 butadiene)"	425.37	43.3	220.8	0.193
"1066-35-9"	"chlorodimethylsilane"	472	36.2	299	0.253
"1067-08-9"	"3-methyl-3-ethylpentane"	576.5	28.1	455.1	0.305
"1067-09-0"	"1,3-dichloro-2-(chloromethyl)-2-methylpropane"	635.09	31.21	451.5	0.345
"1067-20-5"	"3,3-diethylpentane"	610.05	26.75	473	0.338
"1068-19-5"	"4,4-dimethylheptane"	585.4	24.32	501	0.364
"1068-87-7"	"2,4-dimethyl-3-ethylpentane"	591	25.3	512	0.353
"1069-53-0"	"2,3,5-trimethylhexane"	579.2	24.01	509	0.364
"107-00-6"	"ethylacetylene"	443.2	49.5	222	0.247
"107-01-7"	"2-butene"	425.43	40.82	237.8	0.199
"107-02-8"	"acrolein"	506	50	197	0.32
"107-03-9"	"1-propanethiol"	536.6	46.3	254	0.232
"107-05-1"	"3-chloro-1-propene"	514.15	47.1	234	0.148
"107-06-2"	"1,2-dichloroethane"	561.6	53.7	220	0.287
"107-07-3"	"2-chloroethanol"	585	59.2	212	0.658
"107-08-4"	"1-iodopropane"	593	50.3	290	0.258
"107-10-8"	"propylamine"	496.95	47.4	260	0.28
"107-11-9"	"allylamine"	505	51.7	247	0.327
"107-12-0"	"propionitrile"	564.4	41.85	229	0.325
"107-13-1"	"acrylonitrile"	535	44.8	212	0.35
"107-15-3"	"ethylenediamine"	593	62.9	264	0.472
"107-16-4"	"hydroxyacetonitrile"	664	59.3	195	0.801
"107-18-6"	"allyl alcohol"	545.1	56.2	208	0.57
"107-19-7"	"propargyl alcohol"	580	65.3	176	0.555
"107-20-0"	"chloroacetaldehyde"	555	53.7	201	0.33
"107-21-1"	"ethylene glycol"	720	82	191	0.507
"107-22-2"	"glyoxal"	495	58.8	164	0.413
"107-25-5"	"methyl vinyl ether"	437	46.7	210	0.237
"107-29-9"	"acetaldoxime"	568	60.4	213	0.638
"107-30-2"	"chloromethyl methyl ether"	521	50.3	214	0.27
"107-31-3"	"methyl formate"	487.2	59.98	172	0.254
"107-39-1"	"2,4,4-trimethyl-1-pentene"	550	26.8	436	0.301
"107-40-4"	"2,4,4-trimethyl-2-pentene"	555	26.8	436	0.297
"107-41-5"	"hexylene glycol"	621	40.1	398	1.158
"107-45-9"	"tert-octylamine"	601.45	26.52	517.6	0.5
"107-46-0"	"hexamethyldisiloxane"	518.7	19.14	601	0.415
"107-47-1"	"di-tert-butyl sulfide"	658.04	25.59	537.5	0.447
"107-51-7"	"octamethyltrisiloxane"	564.4	14.4	868	0.533
"107-52-8"	"tetradecamethylhexasiloxane"	653.2	8.04	1808	0.785
"107-74-4"	"3,7-dimethyl-1,7-octanediol"	716.12	25.3	629	1.315
"107-80-2"	"1,3-dibromobutane"	672.32	47.17	377.5	0.435
"107-81-3"	"2-bromopentane"	585.36	38.06	371.5	0.359
"107-82-4"	"1-bromo-3-methylbutane"	589.86	38.06	371.5	0.359
"107-83-5"	"2-methylpentane"	497.7	30.4	368	0.279
"107-84-6"	"1-chloro-3-methylbutane"	558.87	33.53	358.5	0.293
"107-85-7"	"3-methylbutylamine"	544.9	36.2	340	0.416
"107-86-8"	"3-methyl-2-butenal"	570	41	271.5	
"107-87-9"	"methyl propyl ketone"	561.08	36.94	301	0.343
"107-88-0"	"1,3-butanediol"	676	40.2	305	0.704
"107-89-1"	"3-hydroxybutanal"	620	45.9	278	0.797
"107-92-6"	"butanoic acid"	615.7	40.64	291.7	0.681
"107-93-7"	"trans-2-butenoic acid"	666	47	270	0.571
"107-96-0"	"3-mercaptopropionic acid"	729	50.2	281	0.589
"107-98-2"	"propylene glycol monomethyl ether"	553	43.4	294	0.722
"1070-01-5"	"tridecylamine"	839.25	6.07	1753.5	
"1070-32-2"	"3-methyl-1-heptanol"	616.9	28.11	496.5	0.806
"1070-78-6"	"1,1,1,3-tetrachloropropane"	654.78	37.41	388.5	0.31
"1070-83-3"	"3,3-dimethylbutanoic acid"	661	33.8	389	0.652
"1070-87-7"	"2,2,4,4-tetramethylpentane"	574.6	24.9	504	0.314
"1071-26-7"	"2,2-dimethylheptane"	576.7	23.5	519	0.391
"1071-31-4"	"2,2,7,7-tetramethyloctane"	635.1	18.39	685.5	0.403
"1071-81-4"	"2,2,5,5-tetramethylhexane"	581.4	21.9	584	0.377
"1071-84-7"	"1,1,1-trichlorononane"	710.31	21.16	675.5	0.52