"CASRN"	"Chemical"	"Tc"	"Pc"	"Vc"	"omega"
"66610-91-1"	"2,3-diethylnaphthalene"	812.35	24.6	633.5	0.537
"66610-92-2"	"1,4-dimethyl-6-ethylnaphthalene"	811.44	24.24	633.5	0.536
"66675-32-9"	"1,1,2-trichlorobutane"	628.34	34.72	394.5	0.332
"66675-34-1"	"cis-1-fluoro-1-butene"	455.25	39.31	257.5	0.251
"66675-35-2"	"trans-1-fluoro-1-butene"	455.25	39.31	257.5	0.251
"66675-38-5"	"cis-2-fluoro-2-butene"	467.83	39.56	258.5	0.227
"66675-39-6"	"trans-2-fluoro-2-butene"	467.83	39.56	258.5	0.227
"66675-40-9"	"1,3-difluoro-2-(fluoromethyl)-propane"	426.87	33.45	307.5	0.36
"66675-46-5"	"1,1-diiodoheptane"	780.77	26.96	597.5	0.421
"66688-32-2"	"1,4-diiodo-2-methylbutane"	744.5	33.26	485.5	0.332
"66688-33-3"	"2,2-diiodo-3-methylbutane"	759.04	34	474.5	0.242
"66688-34-4"	"2,3-diiodo-2-methylbutane"	759.04	34	474.5	0.242
"66688-35-5"	"1,1-diiodopentane"	744.5	33.26	485.5	0.332
"66688-36-6"	"1,3-diiodopentane"	744.5	33.26	485.5	0.332
"66688-37-7"	"2,2-diiodopentane"	752.99	33.68	480.5	0.271
"66688-38-8"	"2,3-diiodopentane"	750.13	33.57	479.5	0.302
"66688-39-9"	"3,3-diiodopentane"	752.99	33.68	480.5	0.271
"66688-43-5"	"1,3-difluoro-2-methylbutane"	463.41	31.85	339.5	0.321
"66688-44-6"	"1,3-difluoro-3-methylbutane"	463.73	31.96	340.5	0.29
"66688-45-7"	"1,4-difluoro-2-methylbutane"	460.3	31.56	345.5	0.351
"66688-46-8"	"2,3-difluoropentane"	491	31.85	339.5	0.321
"66688-47-9"	"2,4-difluoropentane"	491	31.85	339.5	0.321
"66688-49-1"	"1,3-diiodo-2,2-dimethylpropane"	752.99	33.68	480.5	0.271
"66688-50-4"	"1,1-diiodo-2-methylbutane"	750.13	33.57	479.5	0.302
"66688-51-5"	"1,1-diiodo-3-methylbutane"	750.13	33.57	479.5	0.302
"66688-52-6"	"1,2-diiodo-2-methylbutane"	752.99	33.68	480.5	0.271
"66688-53-7"	"1,2-diiodo-3-methylbutane"	750.13	33.57	479.5	0.302
"66688-54-8"	"1,3-diiodo-2-methylbutane"	750.13	33.57	479.5	0.302
"66688-55-9"	"1,3-diiodo-3-methylbutane"	752.99	33.68	480.5	0.271
"66688-56-0"	"1-iodo-trans-2-pentene"	624.39	35.94	383.5	0.286
"66688-57-1"	"2-iodo-cis2-pentene"	628.8	36.16	384.5	0.261
"66688-58-2"	"2-iodo-trans-2-pentene"	628.8	36.16	384.5	0.261
"66688-59-3"	"2-iodo-1-pentene"	614.94	35.73	385.5	0.271
"66688-60-6"	"3-iodo-trans-2-pentene"	628.8	36.16	384.5	0.261
"66688-61-7"	"3-iodo-1-pentene"	615.43	35.86	378.5	0.267
"66688-62-8"	"4-iodo-cis2-pentene"	629.33	36.29	377.5	0.257
"66688-63-9"	"4-iodo-trans-2-pentene"	629.33	36.29	377.5	0.257
"66688-64-0"	"5-iodo-cis2-pentene"	624.39	35.94	383.5	0.286
"66688-66-2"	"1,3-difluoro-2,2-dimethylpropane"	463.73	31.96	340.5	0.29
"66688-67-3"	"1,1-difluoro-2-methylbutane"	463.41	31.85	339.5	0.321
"66688-68-4"	"1,2-difluoro-2-methylbutane"	463.73	31.96	340.5	0.29
"66688-69-5"	"1,2-difluoro-3-methylbutane"	463.41	31.85	339.5	0.321
"66688-72-0"	"cis-1-chloro-1-nonene"	662.93	23.41	568.5	0.474
"66688-73-1"	"trans-1-chloro-1-nonene"	662.93	23.41	568.5	0.474
"66688-74-2"	"cis-1-fluoro-1-nonene"	571.18	23.23	537.5	0.473
"66688-75-3"	"trans-1-fluoro-1-nonene"	571.18	23.23	537.5	0.473
"66702-87-2"	"3-fluoro-trans-2-pentene"	482.63	35.18	314.5	0.271
"66702-88-3"	"3-fluoro-1-pentene"	469.68	34.89	308.5	0.276
"66702-89-4"	"4-fluoro-cis2-pentene"	482.91	35.3	307.5	0.266
"66702-90-7"	"4-fluoro-trans-2-pentene"	482.91	35.3	307.5	0.266
"66702-91-8"	"4-fluoro-1-pentene"	469.68	34.89	308.5	0.276
"66702-92-9"	"5-fluoro-cis2-pentene"	479.34	34.97	313.5	0.296
"66702-93-0"	"5-fluoro-trans-2-pentene"	479.34	34.97	313.5	0.296
"66702-95-2"	"trans-1-iodo-2-methyl-1-butene"	628.8	36.16	384.5	0.261
"66702-96-3"	"trans-1-iodo-3-methyl-1-butene"	629.33	36.29	377.5	0.257
"66702-97-4"	"1-iodo-2-methyl-cis2-butene"	628.8	36.16	384.5	0.261
"66702-98-5"	"1-iodo-2-methyl-trans-2-butene"	628.8	36.16	384.5	0.261
"66702-99-6"	"2-iodo-3-methyl-2-butene"	633.35	36.38	385.5	0.236
"66703-00-2"	"3-iodo-2-methyl-1-butene"	630.52	36.07	379.5	0.242
"66703-01-3"	"4-iodo-3-methyl-1-butene"	615.43	35.86	378.5	0.267
"66703-02-4"	"cis-1-iodo-1-pentene"	641.17	35.94	383.5	0.286
"66703-03-5"	"trans-1-iodo-1-pentene"	641.17	35.94	383.5	0.286
"66703-04-6"	"1-iodo-cis2-pentene"	624.39	35.94	383.5	0.286
"66703-05-7"	"1,1-diiodononane"	817.53	22.29	709.5	0.508
"66719-29-7"	"2,4-diiodopentane"	750.13	33.57	479.5	0.302
"66719-30-0"	"3,4-dimethyl-4-octanol"	616.49	23.59	597.5	0.788
"66719-31-1"	"3,6-dimethyl-4-octanol"	613.56	23.52	596.5	0.822
"66719-32-2"	"4,5-dimethyl-1-octanol"	638.34	23.34	602.5	0.852
"66719-33-3"	"4,6-dimethyl-1-octanol"	638.34	23.34	602.5	0.852
"66719-34-4"	"4,7-dimethyl-1-octanol"	638.34	23.34	602.5	0.852
"66719-35-5"	"7,7-dimethyl-1-octanol"	641.29	23.41	603.5	0.819
"66719-36-6"	"3-ethyl-1-octanol"	631.54	23.16	608.5	0.883
"66719-37-7"	"2-methyl-3-ethyl-3-heptanol"	619.35	23.59	597.5	0.788
"66719-40-2"	"3-ethyl-6-methyl-3-heptanol"	629	23.55	598	0.793
"66719-41-3"	"4-methyl-2-isopropyl-1-hexanol"	625.97	23.07	611.5	0.822
"66719-43-5"	"5-methyl-3-nonanol"	634.39	23.34	602.5	0.852
"66719-44-6"	"5-methyl-4-nonanol"	634.39	23.34	602.5	0.852
"66719-47-9"	"2,2-dimethyl-4-ethyl-3-hexanol"	614.44	23.77	591.5	0.757
"66719-48-0"	"2,4-dimethyl-4-ethyl-3-hexanol"	614.24	23.77	591.5	0.757
"66719-50-4"	"3,4-dimethyl-3-isopropyl-2-pentanol"	610.96	23.5	600.5	0.728
"66719-51-5"	"4,4-dimethyl-3-isopropyl-1-pentanol"	608.9	23.77	591.5	0.757
"66719-52-6"	"2,2-dimethyl-4-octanol"	615.36	23.59	597.5	0.788
"66719-53-7"	"2,5-dimethyl-4-octanol"	613.56	23.52	596.5	0.822
"66719-54-8"	"2,6-dimethyl-4-octanol"	613.56	23.52	596.5	0.822
"66719-55-9"	"2,7-dimethyl-3-octanol"	617.73	23.52	596.5	0.822
"66731-94-0"	"4-methyl-5-ethyl-3-heptanol"	616.21	23.52	596.5	0.822
"66731-95-1"	"5-methyl-2-nonanol"	640.97	23.34	602.5	0.852
"66793-71-3"	"2,5,5-trimethyl-2-hexanol"	634.35	26.24	536.5	0.682
"66793-72-4"	"2,5,5-trimethyl-3-hexanol"	598.36	26.16	535.5	0.716
"66793-73-5"	"3,4,4-trimethyl-1-hexanol"	624.94	25.95	541.5	0.748
"66793-74-6"	"3,4,4-trimethyl-3-hexanol"	597.8	26.24	536.5	0.682
"66793-75-7"	"4,5,5-trimethyl-1-hexanol"	639.75	25.95	541.5	0.748
"66793-76-8"	"ethylheptylamine"	622.2	23.1	565	0.575
"66793-80-4"	"4-methyl-3-octanol"	611.68	25.66	546.5	0.814
"66793-81-5"	"5-methyl-2-octanol"	605.01	25.66	546.5	0.814
"66793-82-6"	"6-methyl-4-octanol"	606.35	25.66	546.5	0.814
"66793-83-7"	"7-methyl-2-octanol"	605.01	25.66	546.5	0.814
"66793-84-8"	"7-methyl-3-octanol"	611.68	25.66	546.5	0.814
"66793-85-9"	"3-propyl-1-hexanol"	612.65	25.46	552.5	0.846
"66793-86-0"	"2,3,3,4-tetramethyl-2-pentanol"	620.23	26.46	530.5	0.651
"66793-87-1"	"2,3,4,4-tetramethyl-2-pentanol"	620.23	26.46	530.5	0.651
"66793-88-2"	"3,3,4,4-tetramethyl-2-pentanol"	620.44	26.46	530.5	0.651
"66793-89-3"	"2,2,4-trimethyl-3-hexanol"	598.56	26.16	535.5	0.716
"66793-90-6"	"2,3,4-trimethyl-3-hexanol"	594.3	26.16	535.5	0.716
"66793-91-7"	"2,4,4-trimethyl-2-hexanol"	634.35	26.24	536.5	0.682
"66793-92-8"	"2,4,4-trimethyl-3-hexanol"	601.27	26.16	535.5	0.716
"66793-93-9"	"2,4,5-trimethyl-2-hexanol"	630.85	26.16	535.5	0.716
"66793-94-0"	"3,3-diethyl-2-pentanol"	620.7	25.95	541.5	0.748
"66793-95-1"	"2,2-dimethyl-3-ethyl-1-pentanol"	620.7	25.95	541.5	0.748
"66793-96-2"	"2,2-dimethyl-3-ethyl-3-pentanol"	608.69	26.24	536.5	0.682
"66793-97-3"	"2,3-dimethyl-3-ethyl-2-pentanol"	627.54	26.24	536.5	0.682
"66793-98-4"	"2,4-dimethyl-2-ethyl-1-pentanol"	620.9	25.95	541.5	0.748
"66793-99-5"	"2,2-dimethyl-4-heptanol"	602.05	25.95	541.5	0.748
"66794-00-1"	"2,3-dimethyl-2-heptanol"	612.62	25.95	541.5	0.748
"66794-02-3"	"2-methyl-3-ethyl-2-hexanol"	607.43	25.95	541.5	0.748
"66794-03-4"	"2-methyl-3-ethyl-3-hexanol"	615.65	25.95	541.5	0.748
"66794-04-5"	"3-methyl-2-ethyl-1-hexanol"	621	25.66	546.5	0.814
"66794-05-6"	"3-methyl-4-ethyl-3-hexanol"	608.58	25.95	541.5	0.748
"66794-06-7"	"4-methyl-2-ethyl-1-hexanol"	623.87	25.66	546.5	0.814
"66794-07-8"	"5-methyl-2-ethyl-1-hexanol"	621	25.66	546.5	0.814
"66794-20-5"	"1,2,2,3-tetraiodopropane"	983.52	40.31	544.5	0.268
"66794-21-6"	"1,1,2,3-tetraiodopropane"	978.29	40.16	543.5	0.3
"66794-23-8"	"1,2-diiodo-2-methylpropane"	735.41	37.78	424.5	0.227
"66794-30-7"	"1,1,3,3-tetrafluoropropane"	449.44	35.86	263.5	0.338
"66794-31-8"	"1,1,1,2-tetraiodopropane"	992.1	40.73	538.5	0.239
"66794-32-9"	"1,1,1,3-tetraiodopropane"	983.52	40.31	544.5	0.268
"66794-33-0"	"1,1,2,2-tetraiodopropane"	992.1	40.73	538.5	0.239
"66794-34-1"	"1,1,3,3-tetraiodopropane"	978.29	40.16	543.5	0.3
"66794-36-3"	"1,2,3-trifluoropropane"	401.66	37.5	251.5	0.315
"66794-46-5"	"1,2-dimethylpropyl formate"	573	31.7	381	0.409
"66810-87-5"	"3,5,5-trimethyl-3-hexanol"	597.6	26.24	536.5	0.682
"66826-79-7"	"1,1-diiodotetradecane"	913.9	14.82	989.5	0.697
"66826-84-4"	"4-thiapentadecane"	762.23	15.44	873.5	0.7
"66827-02-9"	"cis-1-bromo-1-tetradecene"	738.68	16.78	861.5	0.733
"66827-03-0"	"trans-1-bromo-1-tetradecene"	738.68	16.78	861.5	0.733
"66827-04-1"	"cis-1-chloro-1-tetradecene"	745.1	15.41	848.5	0.669
"66827-05-2"	"trans-1-chloro-1-tetradecene"	745.1	15.41	848.5	0.669
"66827-06-3"	"cis-1-fluoro-1-tetradecene"	682.24	15.32	817.5	0.668
"66827-07-4"	"trans-1-fluoro-1-tetradecene"	682.24	15.32	817.5	0.668
"66827-08-5"	"cis-1-iodo-1-tetradecene"	771.57	15.6	887.5	0.661
"66827-09-6"	"trans-1-iodo-1-tetradecene"	771.57	15.6	887.5	0.661
"6697-15-0"	"13-cyclohexylpentacosane"	905.99	6.21	1712.5	
"67-56-1"	"methyl alcohol"	512.64	80.97	118	0.564
"67-63-0"	"isopropyl alcohol"	508.31	47.64	220.1	0.669
"67-64-1"	"acetone"	508.2	47.02	209	0.306
"67-66-3"	"chloroform"	536.4	54.72	239	0.222
"67-68-5"	"dimethyl sulfoxide"	729	56.5	227	0.281
"67-72-1"	"hexachloroethane"	695	33.4	412	0.239
"6702-10-9"	"DL-erythro-4-methyl-2,3-pentanediol"	685.78	39.76	391.5	1.143
"6703-80-6"	"11-phenylheneicosane"	860.93	8.26	1439.5	0.733
"6703-82-8"	"heneicosylcyclopentane"	850.13	8.01	1432.5	0.705
"6703-98-6"	"n-hectane"	1215.25	1.51	5984	
"6703-99-7"	"(1-decylundecyl)cyclohexane"	864.14	7.69	1480.5	
"6709-39-3"	"2,6-dimethyl-1,5-heptadiene"	616	32.8	400.7	
"6728-26-3"	"trans-2-hexenal"	590	37	310.1	
"6728-31-0"	"4-heptenal"	610	33	358	
"6734-98-1"	"4-chloro-2-hexene"	583.61	31.6	400.5	0.341
"67363-95-5"	"3-ethylfuran"	556.26	42.55	306.5	0.333
"674-76-0"	"trans-4-methyl-2-pentene"	501	32.2	346	0.255
"674-82-8"	"diketene"	616	59.6	234	0.382
"6742-54-7"	"undecylbenzene"	764	16.72	910	0.738
"675-56-9"	"4-fluoro-1-butene"	441.88	38.82	258.5	0.261
"67590-77-6"	"2-hexenylbenzene"	723	25.5	586.3	
"676-44-8"	"1-fluoroeicosane"	756.8	9.3	1158	0.782
"6765-39-5"	"1-heptadecene"	736	14.1	955	0.753
"677-21-4"	"3,3,3-trifluoropropene"	378.59	36.09	211	0.265
"677-56-5"	"1,1,1,2,2,3-hexafluoropropane"	401.21	33.11	345.5	0.409
"67700-26-9"	"4-octeN-1-ol"	615	31	387.5	
"67747-70-0"	"2-chloro-2-pentene"	561.69	35.41	343.2	0.275
"67749-11-5"	"hexadecyl neodecanoate"	845	9.1	1447.8	
"6776-19-8"	"ethyl cis-2-butenoate"	569	32.5	376	0.434
"6785-23-5"	"undecylcyclopentane"	743.3	15.09	872.5	0.638
"67874-80-0"	"3,7-dimethyloctanyl butyrate"	720.2	13.9	867	0.62
"6789-80-6"	"cis-3-hexenal"	590	37	310.1	
"679-86-7"	"1,1,2,2,3-pentafluoropropane"	447.44	34.44	276.5	0.33
"6790-27-8"	"3-dodecyne"	677.19	20.47	669.5	0.498
"6795-87-5"	"methyl sec-butyl ether"	498	34.1	329	0.306
"6795-88-6"	"methyl 1-methylbutyl ether"	535.12	30.76	383.5	0.359
"67952-57-2"	"1,5-dimethylhexyl acetate"	650.6	20.8	617.5	0.574
"68-11-1"	"thioglycolic acid"	733	61	239	0.56
"68-12-2"	"N,N-dimethylformamide"	649.6	44.2	262	0.318
"680-00-2"	"1,1,2,2,3,3-hexafluoropropane"	417.09	31.53	318.5	0.358
"68107-05-1"	"2-hexanamine, (±)"	559.92	32.83	397.5	0.404
"6812-38-0"	"hexadecylcyclohexane"	813.42	10.24	1200.5	0.741
"6812-39-1"	"hexadecylcyclopentane"	797.25	10.72	1152.5	0.748
"6812-78-8"	"α-citronellol"	643	23	527.6	
"68171-33-5"	"isopropyl isostearate"	785	11.6	1127.3	
"68266-67-1"	"1,2-dichloro-3,4-dimethylbenzene"	735	33	446	
"6836-38-0"	"6-dodecanol"	712.9	19.7	704.5	0.635
"684-16-2"	"hexafluoroacetone"	357.14	28.37	329	0.364
"684-84-4"	"2-methyl-1,3-butanediol"	615.15	44.56	341.5	1.142
"6849-18-9"	"ethyl 4-methyl-3-pentenoate"	616	26	470.5	
"6850-35-7"	"3-methylcyclohexylamine"	622	34.9	393	0.386
"6850-36-8"	"2-ethylcyclohexanamine"	642	31	448.7	
"686-65-7"	"1,2-difluorobutane"	487.3	35.26	289.5	0.306
"6863-58-7"	"di-sec-butyl ether"	559	25.3	494	0.432
"68680-98-8"	"s-3,7-dimethyl-1-octanol"	629	23.55	598	0.793
"6876-18-2"	"2-methyl-3-isopropylheptane"	624.32	19.75	633.5	0.449
"6876-23-9"	"trans-1,2-dimethylcyclohexane"	596.15	29.38	460	0.238
"688-52-8"	"3-propyl-3-hexeN-1-yne"	595	30	424.8	
"688-74-4"	"tributyl borate"	743.15	19.89	863	0.189
"688-84-6"	"2-ethylhexyl methacrylate"	694	22.5	592.3	
"6886-16-4"	"2,5-dimethyl-1-hexanol"	610.77	28.35	490.5	0.773
"689-97-4"	"vinylacetylene"	454	48.6	205	0.118
"6891-45-8"	"2-butyl-4-methylphenol"	751	29.8	546	0.569
"6897-76-3"	"1,2,5-trimethyl-8-isopropylnaphthalene"	808.25	21.65	743.3	0.605
"6897-88-7"	"1,3,8-trimethyl-5-isopropylnaphthalene"	808.25	21.65	743.3	0.605
"69-72-7"	"salicylic acid"	739	51.8	364	0.832
"690-08-4"	"4,4-dimethyl-trans-2-pentene"	528.63	30.22	396.5	0.243
"690-37-9"	"2,4,4-trimethyl-2-pentanol"	579.96	29.03	480.5	0.639
"690-39-1"	"1,1,1,3,3,3-hexafluoropropane"	406.85	33.11	289.5	0.321
"690-92-6"	"2,2-dimethyl-cis3-hexene"	559.69	27.27	452.5	0.287
"690-93-7"	"2,2-dimethyl-trans-3-hexene"	552.92	27.27	452.5	0.287
"691-37-2"	"4-methyl-1-pentene"	496	32.2	345	0.239
"691-38-3"	"cis-4-methyl-2-pentene"	499	32.2	346	0.244
"691-42-9"	"1,3-difluorobutane"	502.38	35.26	289.5	0.306
"69112-21-6"	"trans-3-hexenal"	590	37	310.1	
"6912-05-6"	"1,5-dimethyl-4-isopropylcyclopentene"	647.47	25.98	522.5	0.403
"6915-15-7"	"malic acid"	781	50.7	331	1.526
"692-24-0"	"2-methyl-trans-3-hexene"	533.44	29.86	401.5	0.302
"692-45-5"	"vinyl formate"	498	50.2	217	0.285
"692-47-7"	"cis-1,2-di-tert-butylethene"	616.98	21.85	581.3	0.457
"692-48-8"	"trans-2,2,5,5-tetramethyl-3-hexene"	616.98	21.85	581.3	0.457
"692-70-6"	"2,5-dimethyl-trans-3-hexene"	550.28	27.18	451.5	0.317
"692-86-4"	"ethyl 10-undecenoate"	716	19	717.4	
"692-96-6"	"2-methyl-trans-3-heptene"	560.58	26.96	457.5	0.347
"6920-22-5"	"1,2-hexanediol"	650.1	38.97	403.5	1.214
"6920-24-7"	"1,2-hexadecanediol"	781.52	15.23	963.5	1.232
"6923-20-2"	"cis-1,2-dichloropropene"	577	43.8	277	0.206
"69295-21-2"	"3-chloro-2-(chloromethyl)-1-butene"	660	35	376	
"693-02-7"	"1-hexyne"	516	36.2	322	0.333
"693-09-4"	"1,1,1-trifluoroheptane"	527.9	24	467	0.439
"693-16-3"	"2-aminooctane"	601.45	26.52	517.6	0.5
"693-19-6"	"7-methyloctanoic acid"	703	24.5	547	0.831
"693-39-0"	"1-nitroheptane"	675.3	28.35	509.5	0.599
"693-54-9"	"2-decanone"	656.59	22.36	601.5	0.612
"693-58-3"	"1-bromononane"	682.65	24.68	601.5	0.568
"693-61-8"	"trans-2-undecene"	637.84	20.23	637.8	0.504
"693-62-9"	"trans-4-undecene"	637.84	20.23	637.8	0.504
"693-65-2"	"dipentyl ether"	622	20.9	593	0.601
"693-67-4"	"1-bromoundecane"	713.07	20.57	713.5	0.651
"693-72-1"	"trans-11-octadecenoic acid"	936	15	1085.6	
"693-83-4"	"11-thiaheneicosane"	832.33	10.27	1209.5	0.795
"693-89-0"	"1-methylcyclopentene"	542	41.3	303	0.232
"6931-70-0"	"2,3-dimethyl-2,3-pentanediol"	695.12	35.94	443.5	1.069
"6931-71-1"	"3,4-diethyl-3,4-hexanediol"	716.12	25.3	629	1.315
"6938-66-5"	"1-bromodocosane"	837.39	9.4	1329.5	0.814
"694-35-9"	"3-ethylcyclopentene"	565.35	35.69	354.5	0.27
"6946-24-3"	"1-bromotetracosane"	858.84	8.39	1441.5	0.755
"69498-28-8"	"1,4-dibromo-2-methylbutane"	654.58	41.52	433.5	0.48
"695-28-3"	"3,3-dimethylcyclohexene"	599.77	34.6	400.5	0.247
"695-98-7"	"2,3,5-trimethylpyridine"	653	33.3	417	0.376
"6950-79-4"	"aniline, p-isopropyl-N-methyl-,"	690	29.85	525.5	0.69
"69542-91-2"	"2,4-dimethylcyclohexanol"	645	35.9	448.2	
"696-29-7"	"isopropylcyclohexane"	627	28.5	464	0.33
"696-30-0"	"4-isopropylpyridine"	653	33.3	417	0.376
"696-44-6"	"N,3-dimethylaniline"	695.58	36.84	432	0.433
"6964-04-1"	"3-methyl-2,4-heptanediol"	692.04	31	517	1.28
"69668-88-8"	"cis-3-hepteN-2-one"	615	35.6	391.3	
"6969-16-0"	"2-tridecenoic acid"	836	19	776.3	
"697-82-5"	"2,3,5-trimethylphenol"	737.64	37.18	365.5	0.494
"69745-49-9"	"1,6,6-trimethylcyclohexene"	620	28.6	451.8	
"6975-92-4"	"2,5-dimethyl-1-hexene"	561.65	26.82	459.5	0.332
"6975-98-0"	"2-methyldecane"	631.76	19.48	645.5	0.507
"6975-99-1"	"6-dodecyne"	677.2	20.4	669.5	0.503
"6976-00-7"	"7-ethyl-2-methyl-4-undecanone"	712.65	16.01	825.5	0.759
"6976-72-3"	"heptyl hexanoate"	682	17.4	776	0.759
"698-71-5"	"3-methyl-5-ethylphenol"	739.51	37.87	365.5	0.495
"698-87-3"	"1-phenyl-2-propanol"	678	34.9	440	0.75
"6982-25-8"	"DL-2,3-butanediol"	611	51.3	267	1.106
"69928-30-9"	"3,5-dimethyl-3-hydroxyhexane-4-carboxylic acid b-lactone"	756	25	545.9	
"6995-30-8"	"1-isopropyl-2,4,7-trimethylnaphthalene"	808.25	21.65	743.3	0.605
"700-12-9"	"pentamethylbenzene"	719.15	28.7	538	0.464
"7003-32-9"	"2-methylcyclohexylamine"	622	34.9	393	0.386
"7005-47-2"	"2-dimethylamino-2-methyl-1-propanol"	681	34.4	436	0.97
"70116-68-6"	"3-methyl-2-butanol, (±)"	562.34	38.9	326.9	0.577
"7013-11-8"	"2,3-dichloro-1-butene"	640	37.98	332	0.302
"702-79-4"	"1,3-dimethyladamantane"	708	30	570	0.293
"7036-98-8"	"6-methyl-5-noneN-4-one"	675	25.6	584.2	
"7040-43-9"	"2-tert-butylfuran"	600	38.7	348.6	
"70419-10-2"	"(S)-2-amino-6-methylheptane"	601.45	26.52	517.6	0.5
"70419-11-3"	"(R)-2-amino-6-methylheptane"	601.45	26.52	517.6	0.5
"7045-71-8"	"2-methylundecane"	650.71	17.92	701.5	0.548
"7058-01-7"	"sec-butylcyclohexane"	667	25.7	534	0.274
"7069-38-7"	"trans-1,2-dichloropropene"	577	43.8	277	0.206
"70690-24-3"	"1,4-dibromooctane"	716.02	29.54	601.5	0.616
"70732-43-3"	"8-methyl-4-nonyne"	642.22	24.46	557.5	0.417
"70732-45-5"	"3,3-dimethyl-4-decyne"	677.2	20.4	669.5	0.503
"7086-07-9"	"1,1,1,2-tetrachloro-2-methylpropane"	690	34	439.5	
"7087-68-5"	"N-ethyl-N-isopropyl-2-propanamine"	601.45	26.52	517.6	0.5
"7094-26-0"	"1,1,2-trimethylcyclohexane"	624.87	28.75	469.5	0.267
"7094-27-1"	"1,1,4-trimethylcyclohexane"	609.63	28.75	469.5	0.267
"7098-20-6"	"N-dotetracontane"	1029.13	3.83	2521.4	
"7098-21-7"	"tritetracontane"	1034.97	3.79	2581.1	
"7098-22-8"	"N-tetratetracontane"	1040.81	3.75	2640.8	
"7098-23-9"	"N-pentatetracontane"	1047.17	3.71	2700.5	
"7098-24-0"	"N-hexatetracontane"	1052.47	3.67	2760.2	
"7098-25-1"	"N-heptatetracontane"	1057.76	3.63	2819.9	
"7098-26-2"	"N-octatetracontane"	1064.1	3.59	2879.6	
"7098-27-3"	"N-nonatetracontane"	1068.32	3.55	2939.3	
"71-23-8"	"propyl alcohol"	536.78	51.75	219	0.622
"71-36-3"	"butanol"	563.05	44.23	275	0.594
"71-41-0"	"1-pentanol"	588.1	38.97	326	0.573
"71-43-2"	"benzene"	562.05	48.95	256	0.21
"71-55-6"	"1,1,1-trichloroethane"	545	43	281	0.218
"7116-86-1"	"5,5-dimethyl-1-hexene"	553.41	26.99	453.5	0.297
"71172-57-1"	"3-ethyl-4-methyl-2-pentanone"	624	26.4	469	0.528
"713-36-0"	"2-methyldiphenylmethane"	784.15	27.27	603.5	0.478
"7132-64-1"	"methyl pentadecanoate"	721	15	879.6	
"7145-20-2"	"2,3-dimethyl-2-hexene"	577.66	27.01	465.5	0.326
"7146-60-3"	"2,3-dimethyloctane"	613	22.1	575	0.433
"71500-21-5"	"allyl 3,5,5-trimethylhexanoate"	694	21.5	619.8	
"7154-75-8"	"4-methyl-1-pentyne"	518.2	37.27	327.5	0.226
"7154-79-2"	"2,2,3,3-tetramethylpentane"	607.5	27.41	478	0.305
"7154-80-5"	"3,3,5-trimethylheptane"	609.5	23.2	577	0.385
"71605-85-1"	"heptyl nonanoate"	721	15	887.5	
"717-74-8"	"1,3,5-triisopropylbenzene"	741	18.95	790	0.638
"71745-63-6"	"4-(1,1-dimethylpropyl)-2-methylphenol"	755.67	27.47	598.7	0.59
"7188-38-7"	"tert-butyl isocyanide"	544.72	34.44	330.5	0.335
"719-79-9"	"1,1-diphenylbutane"	778.3	22	777	0.452
"7194-84-5"	"heptatriacontane"	993.92	4.4	2222.9	
"7194-85-6"	"octatriacontane"	1001.41	4.22	2282.6	
"7194-86-7"	"nonatriacontane"	1008.89	4.06	2342.3	
"7194-87-8"	"N-hentetracontane"	1022.74	3.87	2461.7	
"7212-53-5"	"5-methyl-1-heptanol"	617.71	28.11	496.5	0.806
"7220-26-0"	"3-ethyl-2,4-dimethylhexane"	616.1	23.41	522	0.385
"7225-64-1"	"9-octylheptadecane"	826.84	7.64	1506.5	
"7225-66-3"	"7-hexyltridecane"	748.87	10.95	1148.3	0.741
"7225-71-0"	"1-undecylnaphthalene"	846.34	14	1025.5	0.787
"72312-48-2"	"1,2,3-trimethylcyclohexene"	620	28.6	451.8	
"72345-23-4"	"(2S,4S)-(+)-pentanediol"	633.16	44.22	342.9	1.144
"7239-24-9"	"dimethylisobutylamine"	523.11	32.73	403.5	0.361
"7261-70-3"	"N-hexylethylenediamine"	715	31.5	525.3	