"CASRN"	"Chemical"	"Tc"	"Pc"	"Vc"	"omega"
"31294-95-8"	"2-iodo-2-methylpentane"	597.98	36.69	379.5	0.668
"31294-96-9"	"2-iodo-4-methylpentane"	599.13	36.55	378.5	0.705
"31294-97-0"	"3-iodo-2-methylpentane"	597.44	36.55	378.5	0.705
"31294-98-1"	"1-iodo-2,2-dimethylbutane"	594.3	36.2	384.5	0.739
"31295-00-8"	"1-iodo-2,3-dimethylbutane"	614.19	36.69	379.5	0.668
"3133-01-5"	"1-tricosanol"	821.6	10.4	1292.7	
"31366-00-4"	"1,2,3-trimethyl-5-ethylbenzene"	693.04	25.3	543.5	0.441
"31367-46-1"	"3-methyl-2-heptanol"	593.34	28.35	490.5	0.773
"3142-72-1"	"2-methyl-2-pentenoic acid"	696	33	389.4	
"31501-11-8"	"cis-3-hexenyl caproate"	694	21.5	619.8	
"31508-08-4"	"6,6-dimethyl-1-hepteN-4-yne"	595	30	424.8	
"31508-12-0"	"1-noneN-4-yne"	595	30	424.8	
"3155-43-9"	"1,18-octadecanediol"	837.63	13.11	1081.5	1.13
"31576-40-6"	"osmium (V) fluoride"	939.36	0	0	
"3162-62-7"	"1,1-dichlorodecane"	704.32	19.86	687.5	0.57
"31642-67-8"	"8-nonenoic acid"	756	25	545.9	
"31703-09-0"	"trisulfur dichloride"	489.74	35.76	298.29	
"31720-69-1"	"1,2,2-trimethylcyclohexanol"	655	33.9	478.8	
"3173-53-3"	"cyclohexyl isocyanate"	633	34.7	408	0.525
"3173-72-6"	"1,5-diisocyanatonaphthalene"	818	27.2	635	0.73
"3174-67-2"	"1,3-pentanediol"	653.86	44.09	347.5	1.179
"3175-23-3"	"1,2,2-trichloropropane"	611.68	39.16	339.5	0.256
"31772-05-1"	"1,13-dibromotridecane"	777.32	18.58	881.5	0.813
"3178-22-1"	"tert-butylcyclohexane"	667	25.7	534	0.274
"3178-23-2"	"dicyclohexylmethane"	749.48	23.66	629.5	0.385
"3178-24-3"	"1,3-dicyclohexylpropane"	766.86	19.79	741.5	0.471
"3178-29-8"	"4-propylheptane"	601	21.78	545	0.444
"3179-47-3"	"decyl methacrylate"	738	18	773.8	
"3179-63-3"	"3-(dimethylamino)-1-propanol"	626.41	37.9	368	0.841
"3180-09-4"	"2-butylphenol"	713.69	34.36	421.5	0.542
"31805-48-8"	"3-methyl-2-ethylthiophene"	652	37.13	387.5	0.342
"31841-77-7"	"5,5-dimethyl-2-hexanol"	599.88	28.69	485.5	0.706
"31844-95-8"	"2-bromo-1-pentene"	576.34	39.96	359.5	0.341
"31844-96-9"	"2-bromo-3-methyl-1-butene"	570.77	40.36	353.5	0.311
"31849-75-9"	"cis-1-bromo-1-pentene"	584.97	40.21	357.5	0.357
"31849-76-0"	"trans-1-bromo-1-pentene"	584.97	40.21	357.5	0.357
"31849-78-2"	"cis-1-bromo-1-butene"	554.15	45.59	301.5	0.312
"3195-86-6"	"2-ethylthiacyclopropane"	594.72	45.78	262.5	0.244
"31950-55-7"	"4-bromo-3-methyl-1-butene"	569.74	40.11	352.5	0.337
"31950-56-8"	"4-bromo-1-pentene"	581.77	40.11	352.5	0.337
"320-60-5"	"2,4-dichlorobenzotrifluoride"	646	28.1	443	0.434
"32018-76-1"	"2,5-dimethyl-4-ethylphenol"	711.68	33.18	421.5	0.54
"32064-78-1"	"7-methyl-5-octeN-4-one"	655	28.6	511.2	
"3208-16-0"	"2-ethylfuran"	557.25	42.55	306.5	0.333
"32114-79-7"	"2-methyl-1-isopropylnaphthalene"	817.54	24.8	627.5	0.507
"3218-02-8"	"cyclohexanemethanamine"	622	34.9	393	0.386
"3221-61-2"	"2-methyloctane"	582.8	23.1	541	0.458
"3226-32-2"	"2-hexylphenol"	755.67	27.47	598.7	0.59
"3228-01-1"	"3-methyl-2-propylphenol"	762.45	33.76	421.5	0.541
"3228-02-2"	"3-methyl-4-isopropylphenol"	732.05	34.08	415.5	0.509
"3228-03-3"	"3-methyl-5-isopropylphenol"	738.01	34.08	415.5	0.509
"3228-04-4"	"2-methyl-6-isopropylphenol"	746.4	34.08	415.5	0.509
"3228-99-7"	"2,2-bis(chloromethyl)-1,3-dichloropropane"	725	32	490.7	
"32321-65-6"	"zirconium telluride"	1592.9	418.15	82.98	
"3234-49-9"	"1,2-dibromopentane"	671.42	41.52	433.5	0.48
"32341-91-6"	"3-methyl-1,1-diphenylethane"	786.32	24.93	653.5	0.491
"32341-92-7"	"2-methyl-1,1-diphenylethane"	787.73	24.93	653.5	0.491
"32367-54-7"	"2-ethyl-[1,2,3,4-tetrahydronaphthalene]"	739.79	27.73	548.5	0.424
"3238-38-8"	"2,3,4,6-tetramethylphenol"	743.7	32.62	421.5	0.538
"3238-75-3"	"2-(dipropylamino)ethanol"	741	31	512	
"3240-09-3"	"5-methyl-5-hexeN-2-one"	615	35.6	391.3	
"32442-47-0"	"2-iodo-3-methyl-1-butene"	619.84	36.07	379.5	0.242
"32444-34-1"	"3-methyl-2-ethyl-1-butanol"	596.52	31.49	434.5	0.731
"32620-08-9"	"trans-1-bromo-1-butene"	567.34	45.59	301.5	0.312
"32665-23-9"	"isopropyl isopentanoate"	599.25	25.13	499	0.472
"3268-49-3"	"3-(methylthio)propanal"	650	40.2	314	0.417
"3274-28-0"	"2-propylhexanoic acid"	703	24.5	547	0.831
"3274-29-1"	"2-ethylheptanoic acid"	703	24.5	547	0.831
"32764-34-4"	"6-methyl-3-heptyl acetate"	650.6	20.8	617.5	0.574
"32768-54-0"	"2,3-dichlorotoluene"	710	36.2	404	0.343
"32812-23-0"	"2,2-dimethyl-1,4-butanediol"	636.35	39.91	392.5	1.105
"32814-16-7"	"cis-1-fluoro-1-octene"	548.71	25.53	481.5	0.429
"32814-17-8"	"trans-1-fluoro-1-octene"	548.71	25.53	481.5	0.429
"3290-06-0"	"1,3-dichloro-5-(chloromethyl)benzene"	737	33.4	447	0.26
"32970-37-9"	"3,4-dimethyltetrahydrofuran"	581.14	36.47	332.5	0.282
"3302-10-1"	"3,5,5-trimethylhexanoic acid"	703	24.5	547	0.831
"3302-16-7"	"3,3-dimethylbutanenitrile"	598.54	30.86	386.5	0.379
"33021-02-2"	"tert-butyl isobutyl ether"	563.33	25.07	489.3	0.415
"33083-83-9"	"5-undecanone"	678.01	20.46	657.5	0.653
"33189-72-9"	"trans-tetradec-11-eN-1-yl acetate"	782	16	906.4	
"3321-50-4"	"1,2-dicyclohexylethane"	762.12	21.59	685.5	0.429
"33228-44-3"	"4-pentylaniline"	700	27.5	566.1	
"33228-45-4"	"4-hexylaniline"	710	25	626.9	
"33234-93-4"	"7-methyl-1-nonanol"	638.09	23.16	608.5	0.883
"3329-48-4"	"3,5-dimethyl-1-hexeN-3-ol"	615	31	387.5	
"334-48-5"	"decanoic acid"	722.1	22.5	608	0.806
"334-49-6"	"trans-2-decenoic acid"	776	23	600.8	
"334-56-5"	"1-fluorodecane"	623.1	19.7	608	0.555
"334-68-9"	"1-fluorododecane"	658.6	16.7	718	0.625
"33425-49-9"	"1-nonyl-[1,2,3,4-tetrahydronaphthalene]"	805.45	15.13	940.5	0.702
"33429-72-0"	"4-chloro-2,2-dimethylpentane"	621.08	26.93	476.5	0.418
"3344-70-5"	"1,12-dibromododecane"	766.37	20.22	825.5	0.779
"33467-73-1"	"cis-3-hexenyl formate"	592.33	28.3	428	0.432
"33467-74-2"	"cis-3-hexenyl propionate"	628	24.5	504.8	
"33467-76-4"	"trans-2-hepteN-1-ol"	601	35	341	
"33553-93-4"	"2,4-dichloro-2,4-dimethylpentane"	654.02	26.14	519.5	0.442
"3360-16-5"	"N-isopropyl-1,3-propanediamine"	663	38.1	408.4	0.65
"33622-26-3"	"1-deceN-3-yne"	615	27	486	
"33673-01-7"	"2-sec-butyl-1,3-propanediol"	660.11	35.01	453.5	1.212
"33693-78-6"	"1,1-dibromo-2-methylpropane"	635.76	47.69	371.5	0.403
"33698-87-2"	"cis-3-pentenoic acid"	676	40.57	321.5	0.415
"33758-16-6"	"(S)-(+)-2-decanol"	629	23.55	598	0.793
"3377-86-4"	"2-bromohexane"	612	33.92	427.5	0.404
"3377-87-5"	"3-bromohexane"	608.18	33.92	427.5	0.404
"3377-92-2"	"vinyl pivalate"	556	29.5	423	0.391
"338-64-7"	"1-chloro-1,2-difluoroethane"	435.18	42.77	226.5	0.271
"338-65-8"	"2-chloro-1,1-difluoroethane"	477.91	42.77	227	0.271
"3386-33-2"	"1-chlorooctadecane"	783.25	11.24	1092.5	0.777
"33877-11-1"	"α-methylbenzenemethanethiol, (S)"	725.28	38.3	429.5	0.374
"33879-72-0"	"3-methyl-1,3-pentanediol"	637.26	39.51	398.5	1.14
"3391-86-4"	"1-octeN-3-ol"	615	31	387.5	
"33933-77-6"	"7-methyl-4-octanol"	606.35	25.66	546.5	0.814
"33933-78-7"	"5-methyl-5-nonanol"	637.32	23.41	603.5	0.819
"33933-79-8"	"2,4-dimethyl-4-octanol"	616.49	23.59	597.5	0.788
"33943-21-4"	"2-methyl-4-ethyl-3-hexanol"	605.43	25.87	540.5	0.782
"33966-50-6"	"2-butanamine, (.+/-.)-"	503.5	39.45	299.9	0.331
"33968-46-6"	"1,2-tridecanediol"	736.93	19.34	795.5	1.31
"33968-47-7"	"1,2-pentadecanediol"	766.08	16.44	907.5	1.267
"33978-71-1"	"2-methyl-5-undecanol"	712.9	19.7	704.5	0.635
"34014-79-4"	"1,3-hexadecanediol"	795.01	15.23	963.5	1.232
"3404-57-7"	"6-methyl-3-heptene"	564.74	26.94	458.8	0.328
"3404-58-8"	"3-ethyl-1-hexene"	556.24	26.68	458.5	0.357
"3404-61-3"	"3-methyl-1-hexene"	528	29.5	398	0.306
"3404-63-5"	"2-ethyl-1,3-butadiene"	531.56	34.4	334.5	0.251
"3404-67-9"	"3-methyl-2-ethyl-1-pentene"	561.5	26.82	459.5	0.332
"3404-71-5"	"2-ethyl-1-pentene"	543	29.5	398	0.307
"3404-72-6"	"2,3-dimethyl-1-pentene"	532.72	29.7	403.5	0.288
"3404-73-7"	"3,3-dimethyl-1-pentene"	527.74	29.89	397.5	0.253
"3404-77-1"	"3,3-dimethyl-1-hexene"	555.62	26.99	453.5	0.297
"3404-78-2"	"2,5-dimethyl-2-hexene"	564.45	27.1	458.5	0.322
"3404-80-6"	"4-methyl-2-ethyl-1-pentene"	559.75	26.82	459.5	0.332
"3405-32-1"	"1,2,3,4-tetrachlorobutane"	690	34	439.5	
"3405-42-3"	"methyldipropylamine"	556.46	29.16	465.5	0.437
"3405-45-6"	"N-methyldibutylamine"	617.4	23.31	570.9	0.567
"34075-28-0"	"2-nitro-2,3-dimethylbutane"	642.93	32.47	436.5	0.427
"3419-66-7"	"1-tert-butyl-1-cyclohexene"	640	26	511	
"3419-71-4"	"1,4,4-trimethylcyclohexene"	620	28.6	451.8	
"34238-52-3"	"3-chloro-2-pentene"	561.69	35.41	343.2	0.275
"34240-76-1"	"2-[isopentylamino]ethanol"	716	33	468.3	
"34263-68-8"	"4-methyl-1-hexylamine"	565.35	29.19	459.3	0.409
"34317-39-0"	"methyl-1,2-dimethylpropylamine"	560.25	31.81	400.5	0.432
"34338-96-0"	"(2S,5S)-2,5-hexanediol"	649.93	39.42	396.9	1.16
"34375-89-8"	"3-methylpyrrolidine"	550	42	298	0.227
"34403-05-9"	"2-methyl-1,2-diphenylethane"	793.78	24.73	659.5	0.522
"34403-06-0"	"3-methyl-1,2-diphenylethane"	792.39	24.73	659.5	0.522
"3452-07-1"	"1-eicosene"	771	12.2	1160	0.88
"3452-09-3"	"1-nonyne"	598.05	26.1	497	0.471
"3452-97-9"	"3,5,5-trimethyl-1-hexanol"	627.63	25.95	541.5	0.748
"3454-07-7"	"p-ethylstyrene"	680.1	30.19	468.5	0.376
"34566-04-6"	"(S)-2-aminooctane"	601.45	26.52	517.6	0.5
"34566-05-7"	"(R)-2-aminooctane"	601.45	26.52	517.6	0.5
"3457-57-6"	"1-nitro-2-methylbutane"	628	32	391	0.456
"34570-59-7"	"1,1,2,2-tetrabromopropane"	766.37	69.1	434.5	0.552
"34581-76-5"	"1,1,2,3-tetrabromopropane"	798.18	67.85	439.5	0.625
"34590-94-8"	"dipropylene glycol monomethyl ether"	612	29	466.6	0.88
"34713-94-5"	"2-methyl-1-butanol, (±)"	562.34	38.9	326.9	0.577
"34715-98-5"	"1-nitro-2,2-dimethylpropane"	614	31	392	0.423
"34719-63-6"	"1,2-heptadecanediol"	797.59	14.15	1019.5	1.188
"34722-01-5"	"3-butylthiophene"	665	32.5	433.2	
"34786-24-8"	"3-methyl-(1-thiapropyl)-benzene"	717.74	32.69	485.5	0.416
"34840-79-4"	"2,3-dichloro-1,4-dimethylbenzene"	735	33	446	
"34859-98-8"	"1,1-dimethylbutyl acetate"	618	25.4	494	0.54
"34887-14-4"	"2,2-dichloropentane"	601.15	32.54	402.5	0.291
"34949-22-9"	"1,1-dimethylpropyl propanoate"	589	26	494	0.749
"3495-46-3"	"3-amino-3-methylpentane"	586.93	33.88	389.5	0.387
"34994-81-5"	"1-iodoeicosane"	833.96	11.01	1174.5	0.969
"350-50-5"	"(fluoromethyl)benzene"	590.48	38.15	337.5	0.311
"35008-86-7"	"3-hexenylbenzene"	723	25.5	586.3	
"35073-27-9"	"2-methylbutyl formate"	577	31.3	387	0.378
"3508-00-7"	"1-bromoheptadecane"	784.07	12.93	1049.5	0.827
"35153-15-2"	"cis-9-tetradeceN-1-ol"	699	16	788.7	
"35161-70-7"	"methylhexylamine"	586.8	28.6	455	0.509
"35182-51-5"	"4-(1-ethylpropyl)pyridine"	693	27	535	
"35194-37-7"	"4-heptenoic acid"	716	29	451.8	
"352-32-9"	"p-fluorotoluene"	590.48	38.15	337.5	0.311
"352-70-5"	"m-fluorotoluene"	590.48	38.15	337.5	0.311
"352-93-2"	"3-thiapentane"	557.15	39.6	318	0.29
"3520-52-3"	"2-methyl-6-propylphenol"	733.95	33.76	421.5	0.541
"35205-71-1"	"3-methyl-3-hexenoic acid"	716	29	451.8	
"35205-79-9"	"3-methylnonanoic acid"	713	22.5	600	0.877
"3521-91-3"	"1-hepteN-4-ol"	601	35	341	
"35216-11-6"	"7-tetradecyne"	697.74	16.97	776.8	0.622
"3522-86-9"	"3-sec-butylphenol"	733	34.68	415.5	0.51
"3522-94-9"	"2,2,5-trimethylhexane"	569.8	23.3	519	0.345
"3524-73-0"	"5-methyl-1-hexene"	528	28.7	398	0.31
"35242-05-8"	"trans-2-butylcyclohexanol"	665	30.9	529.8	
"3525-25-5"	"3-ethyl-1-heptanol"	636.71	25.46	552.5	0.846
"353-36-6"	"ethyl fluoride"	375.31	50.28	164	0.22
"353-50-4"	"carbonyl fluoride"	297	57.6	141	0.283
"353-58-2"	"bromodichlorofluoromethane"	512.9	45.3	266	0.187
"353-59-3"	"bromochlorodifluoromethane"	426.15	42.54	246	0.187
"353-61-7"	"2-fluoro-2-methylpropane"	446.83	37.73	266.5	0.194
"353-81-1"	"2,2-difluorobutane"	466.65	35.73	284.5	0.246
"35320-23-1"	"(R)-(-)-2-amino-1-propanol"	631	54.63	269.7	0.737
"35365-59-4"	"9-octadecyne"	754.15	12.85	1005.5	0.709
"35399-81-6"	"2-amino-3-methylpentane"	596.83	33.76	388.5	0.419
"354-09-6"	"2-fluoro-2,3-dimethylbutane"	508.31	30.19	378.5	0.282
"354-11-0"	"1,1,1,2-tetrachloro-2-fluoroethane"	598.6	40.3	345	0.289
"354-12-1"	"1,1,1-trichloro-2,2-difluoroethane"	530.7	39.9	314	0.288
"354-14-3"	"1,1,2,2-tetrachloro-1-fluoroethane"	598	40.3	345	0.289
"354-15-4"	"1,1,2-trichloro-1,2-difluoroethane"	530	39.9	314	0.288
"354-21-2"	"1,2,2-trichloro-1,1-difluoroethane"	529	39.9	314	0.288
"354-23-4"	"1,2-dichloro-1,1,2-trifluoroethane"	461.6	36.1	278	0.241
"354-25-6"	"1-chloro-1,1,2,2-tetrafluoroethane"	400	37.6	252	0.274
"354-33-6"	"pentafluoroethane"	339.17	36.2	211.3	0.305
"354-56-3"	"pentachlorofluoroethane"	624	33.4	382	0.245
"354-58-5"	"1,1,1-trichloro-2,2,2-trifluoroethane"	483	33.2	321	0.267
"354-92-7"	"perfluoroisobutane"	386.35	23.23	397	0.372
"35413-38-8"	"2,2,4-trimethylcyclohexanone"	690	29.5	474.6	
"35449-36-6"	"2,2,9,9-tetramethyl-1,10-decanediol"	770.08	17.77	853	1.296
"355-25-9"	"decafluorobutane"	386.35	23.23	397	0.372
"3552-01-0"	"1-isopropylcyclohexanol"	655	33.9	478.8	
"3555-47-3"	"tetrakis(trimethylsilyloxy)silane"	645.8	9.61	1610	0.746
"35551-81-6"	"dipentadecylamine"	906	5.99	1750.5	
"35599-77-0"	"1-iodotridecane"	744.41	18.23	782.5	1.014
"35599-78-1"	"1-iodopentadecane"	771.45	15.57	894.5	1.04
"356-18-3"	"1,2-dichloro-1,2,3,3,4,4-hexafluorocyclobutane"	497	27.3	386	0.233
"357-26-6"	"1,1,2,3,3,4,4,4-octafluoro-1-butene"	392	23.3	347	0.291
"3574-43-4"	"N,N-diisopentylethanolamine"	820	24	714.9	
"358-03-2"	"3,3-difluoropentane"	500.25	31.96	340.5	0.29
"3581-69-9"	"2,2-dimethylpropyl propanoate"	593	24.7	503	0.677
"35852-46-1"	"cis-3-hexenyl valerate"	672	22.5	578.4	
"3586-58-1"	"2-methylenebutanoic acid"	676	40.57	321.5	0.415
"35866-89-8"	"2,6-dimethyl-4-isopropylheptane"	624.8	18.29	683.5	0.462
"35866-96-7"	"2,4,4,7-tetramethyloctane"	629.87	18.34	684.5	0.432
"35895-39-7"	"3-iodo-cis2-pentene"	628.8	36.16	384.5	0.261
"35897-16-6"	"2-methyl-3-pentyl acetate"	618	25.4	494	0.54
"359-00-2"	"1-fluoro-2-methylpropane"	444.56	37.23	271.5	0.254
"359-01-3"	"2-fluorobutane"	458.55	37.23	271.5	0.254
"359-10-4"	"2-chloro-1,1-difluoroethylene"	400.55	44.58	197	0.212
"359-11-5"	"trifluoroethene"	347.22	45.16	182.5	0.238
"359-28-4"	"1,1,2-trichloro-2-fluoroethane"	552.93	41.62	300.5	0.296
"359-35-3"	"1,1,2,2-tetrafluoroethane"	391.8	46.2	191	0.266
"35902-57-9"	"ethyldodecylamine"	707.4	15.7	840	0.776
"3593-00-8"	"5-heptenoic acid"	716	29	451.8	
"35951-33-8"	"2-chloro-2,4-dimethylpentane"	621.08	26.93	476.5	0.418
"35951-36-1"	"2,6-dichloro-2,6-dimethylheptane"	688.79	21.67	631.5	0.528
"360-89-4"	"octafluoro-2-butene"	392	23.3	347	0.292
"36011-19-5"	"1,1,2-trifluoropropane"	404.56	37.87	245.5	0.285
"36049-78-2"	"2-iodooctane, (±)"	665.98	28.84	502.5	0.857
"36186-96-6"	"3-methyl-5-propylphenol"	756.97	33.76	421.5	0.541
"36230-28-1"	"2-butyl-[1,2,3,4-tetrahydronaphthalene]"	764.18	22.87	660.5	0.511
"36301-29-8"	"1-methyl-2-isobutylbenzene"	671.35	26.3	537.5	0.412
"3634-92-2"	"propyl stearate"	785	11.6	1138.4	
"36343-05-2"	"methylheptylamine"	609.8	26	510	0.547
"3638-35-5"	"isopropylcyclopropane"	506.65	35.6	333.1	0.259
"3643-64-9"	"1,3,5-trimethylcyclohexene"	620	28.6	451.8	
"3648-20-2"	"diundecyl phthalate"	970	9.28	1580	0.747
"3648-21-3"	"diheptyl phthalate"	815	12.7	1160	1.105
"36555-73-4"	"diethylpentadecylamine"	735.67	11.08	1137.5	0.811
"36566-80-0"	"2-methyl-3-hexyne"	561.44	33.72	383.5	0.25
"36653-82-4"	"1-hexadecanol"	770	16.1	907	0.816
"36668-55-0"	"cis-1-bromo-2-methyl-1-butene"	592.21	40.47	358.5	0.331
"36691-77-7"	"2-methyl-4-tridecanol"	736.2	17.15	812.5	0.686
"367-11-3"	"o-difluorobenzene"	554.46	40.67	299.5	0.32
"3675-68-1"	"1,1,2-tribromobutane"	725.15	52.59	433.5	0.531
"3675-69-2"	"1,2,2-tribromobutane"	727.5	52.82	434.5	0.495
"36794-64-6"	"2,3,3-trimethyl-1-butanol"	601.01	31.88	429.5	0.662
"3681-78-5"	"propyl dodecanoate"	708	15.8	845.7	
"3683-19-0"	"4-methyl-cis2-hexene"	534.04	29.86	401.5	0.302
"3683-22-5"	"4-methyl-trans-2-hexene"	535.9	29.86	401.5	0.302
"36839-67-5"	"methyl 1-ethylpropyl ether"	530.71	30.76	383.5	0.359
"3685-00-5"	"3,trans-6-dimethylcyclohexene"	597.92	31.63	401.5	0.26
"3685-01-6"	"4,trans-5-dimethylcyclohexene"	597.92	31.63	401.5	0.26
"3687-48-7"	"(R)-(-)-1-octeN-3-ol"	615	31	387.5	
"36880-72-5"	"3-ethyl-cis2-hexene"	572.89	26.87	464.5	0.351
"36903-89-6"	"4-chloro-4-methyloctane"	661.88	22.27	588.5	0.505
"36903-92-1"	"5-methyl-5-octeN-4-ol"	629	27	447.3	
"36903-95-4"	"4-methyl-3,5-octadiene"	616	32.8	400.7	
"36917-36-9"	"4-ethyl-2,6-dimethylpyridine"	673	30	469.4	
"3698-89-3"	"2-thiatetradecane"	748.42	16.67	817.5	0.667
"3698-93-9"	"4-thiadodecane"	717.91	19.63	705.5	0.592
"3698-94-0"	"3-thiaundecane"	700	24	624	0.538
"3698-95-1"	"2-thiadecane"	681.56	23.45	593.5	0.508
"37050-06-9"	"7-methyl-3-octyne"	621.49	26.96	501.5	0.373
"371-64-2"	"1-fluoro-3,3-dimethylbutane"	517.29	30.09	377.5	0.313
"371-65-3"	"2,2-difluoropentane"	499.35	31.96	340.5	0.29
"3710-30-3"	"1,7-octadiene"	586	34	369.1	
"3710-31-4"	"1,2-heptanediol"	661.26	34.68	459.5	1.245
"3710-43-8"	"2,4-dimethylfuran"	560.17	41.73	306.5	0.332
"3710-84-7"	"N-ethyl-N-hydroxyethanamine"	567	41.3	331	0.715
"37143-54-7"	"2-amino-1-methoxypropane"	548	40.9	333	0.423
"3717-68-8"	"4-methyl-1,1-diphenylethane"	789.13	24.93	653.5	0.491
"372-18-9"	"m-difluorobenzene"	552.94	40.67	299.5	0.32
"372-54-3"	"2-fluorohexane"	528.59	29.83	383.5	0.342
"372-66-7"	"6-amino-2-methyl-2-heptanol"	741	31	512	
"372-90-7"	"1,4-difluorobutane"	524.74	34.93	295.5	0.336
"3724-55-8"	"methyl 3-butenoate"	555.5	36.8	323	0.355
"3724-61-6"	"dodecyl butanoate"	743.9	12.1	983	
"3724-65-0"	"crotonic acid"	656.42	46.6	269.1	0.5
"3726-47-4"	"1-methyl-3-ethylcyclopentane"	585.27	29.47	423.9	0.276
"3728-54-9"	"1-ethyl-2-methylcyclohexane"	621.31	27.4	470.6	0.29
"373-14-8"	"1-fluorohexane"	528.1	28.5	388	0.391
"373-17-1"	"1,5-difluoropentane"	554.4	31.28	351.5	0.381
"373-44-4"	"1,8-octanediamine"	715	31.5	525.3	
"373-49-9"	"cis-9-hexadecenoic acid"	896	17	925.6	
"3730-60-7"	"2,5-dimethyl-2-hexanol"	581.44	28.69	485.5	0.706
"3739-64-8"	"1-(2-propenyloxy)butane"	561	29	403.2	
"374-07-2"	"1,1-dichloro-1,2,2,2-tetrafluoroethane"	418.55	33	294	0.253
"3741-00-2"	"pentylcyclopentane"	647.49	25.05	536.5	0.398
"3742-38-9"	"4-ethylcyclopentene"	566.02	35.69	354.5	0.27
"3742-42-5"	"4-ethylcyclohexene"	611.67	32.84	402.5	0.285
"3744-02-3"	"4-methyl-4-penteN-2-one"	595	39.6	342.8	
"3748-84-3"	"2,3,5,6-tetramethylpyridine"	673	30	469.4	
"37493-70-2"	"5-undecanol"	696.85	21.3	650.5	0.596
"37529-27-4"	"4-heptylaniline"	720	23	685.9	
"37529-30-9"	"4-decylaniline"	750	19	845.4	
"37549-83-0"	"4-methyl-2-hexenoic acid"	716	29	451.8	
"37549-89-6"	"2,4-dimethyl-cis3-hexene"	559.76	27.1	458.5	0.322
"3756-30-7"	"3-iodo-2-methyl-1-propene"	594.11	40.21	329.5	0.227
"3760-11-0"	"2-nonenoic acid"	756	25	545.9	
"3760-20-1"	"2-ethylcyclohexanol"	645	35.9	448.2	
"37615-53-5"	"N-methyldihexylamine"	694.76	16.71	788.3	0.685
"37674-63-8"	"2-methyl-3-pentenoic acid"	696	33	389.4	
"37674-67-2"	"2,2-dimethyl-4-hexeN-3-ol"	615	31	387.5	
"37688-96-3"	"1,14-dibromotetradecane"	787.47	17.13	937.5	0.843
"3769-23-1"	"4-methyl-1-hexene"	534	30.4	398	0.302
"3772-13-2"	"2,2-dimethylthiacyclopropane"	574.84	48.7	260.5	0.206
"3777-69-3"	"2-amylfuran"	650	35.7	407.9	
"3777-71-7"	"2-heptylfuran"	660	29.7	496	
"37796-58-0"	"1,4-diethylnaphthalene"	812.35	24.6	633.5	0.537
"3780-58-3"	"3-methylhexanoic acid"	680	29.9	442	0.717
"37810-94-9"	"1,4-decanediol"	737.41	25.35	627.5	1.309
"37866-06-1"	"1-chloro-2,3-dimethyl-2-butene"	583.61	31.6	400.5	0.341
"3788-32-7"	"isobutylcyclopentane"	617.21	27.88	474.5	0.33
"37973-84-5"	"trans-9-undecenoic acid"	796	21	675	
"38031-78-6"	"3-tert-butylpyridine"	673	30	469.4	
"3806-59-5"	"cis,cis-1,3-cyclooctadiene"	645	39	366	0.286
"3806-60-8"	"(Z,E)-1,3-cyclooctadiene"	645	39	366	0.286
"3814-34-4"	"1-bromo-2-ethylbutane"	626.3	34.68	416.5	0.311
"38146-95-1"	"1,4-dodecanediol"	762.98	21.08	739.5	1.318
"38169-04-9"	"1-iodo-trans-2-butene"	630.09	40.47	327.5	0.242
"382-21-8"	"perfluoroisobutene"	392	23.3	347	0.291
"38204-89-6"	"1,3-dichloro-2,5-dimethylbenzene"	735	33	446	
"38300-67-3"	"1,2,4-tribromobutane"	717.58	51.98	439.5	0.565
"38360-81-5"	"3,5-dimethylthiophenol"	730.98	38.06	429.5	0.373
"38384-05-3"	"3-chloro-2-methylpentane"	571.28	30.36	408.5	0.314
"38395-42-5"	"4-ethyl-4-octanol"	616.17	23.41	603.5	0.819
"3850-30-4"	"2-amino-3,3-dimethyl butane"	557.1	34.2	383.5	0.356
"38514-02-2"	"3-methyl-1-octanol"	627.23	25.46	552.5	0.846