"CASRN"	"Chemical"	"Tc"	"Pc"	"Vc"	"omega"
"116697-35-9"	"cis-2-ethylcyclohexanol, (±)"	645	35.9	448.2	
"116723-96-7"	"1-methylpentyl butanoate, (S)"	657.2	19	635	0.474
"116724-10-8"	"N-ethyl-2-butanamine, (±)"	559.92	32.83	397.5	0.404
"116724-17-5"	"2,3,3-trimethylcyclohexanol"	655	33.9	478.8	
"116724-18-6"	"1,5,6-trimethylcyclohexene"	620	28.6	451.8	
"116781-85-2"	"2-nitrobutane, (±)"	610	36	337.5	0.402
"116783-21-2"	"1,3-diphenylbutane, (±)"	778.3	22	777	0.452
"116783-23-4"	"sec-butyl methyl ether"	497.32	34.09	330.8	0.327
"116783-29-0"	"cis-2,4-dimethylcyclohexanone"	670	32.5	421.7	
"116836-12-5"	"2-nitrooctane, (±)"	690.75	25.66	565.5	0.643
"116836-13-6"	"5-methyl-1-octeN-3-one"	655	28.6	511.2	
"116836-16-9"	"2-amino-3-pentanol"	626.41	37.9	368	0.841
"116836-30-7"	"cis-9-undecenoic acid"	796	21	675	
"116836-32-9"	"1-methylpropyl pentanoate"	629	23.3	547	0.596
"116836-55-6"	"sec-butyl butanoate, (S)"	599.25	25.13	499	0.472
"116908-83-9"	"2-ethylpentanoic acid, (±)"	680	29.9	442	0.717
"117-81-7"	"bis(2-ethylhexyl) phthalate"	806	11.8	1270	1.142
"117-84-0"	"dioctyl phthalate"	806	11.8	1270	1.142
"117903-18-1"	"1-ethylpropyl butanoate"	610	23.9	500	0.86
"118-69-4"	"2,6-dichlorotoluene"	710	36.2	404	0.343
"118-72-9"	"2,6-dimethylthiophenol"	730.98	38.06	429.5	0.373
"118-74-1"	"hexachlorobenzene"	825	28.5	526	0.497
"118-90-1"	"o-toluic acid"	751	38.6	397	0.657
"118-91-2"	"o-chlorobenzoic acid"	792	40.3	383	0.664
"118-93-4"	"1-(2-hydroxyphenyl)ethanone"	707	44.5	394	0.638
"118-96-7"	"2,4,6-trinitrotoluene"	828	30.4	572	0.897
"1184-58-3"	"dimethylaluminum chloride"	619	36.2	320	0.183
"1184-60-7"	"2-fluoro-1-propene"	396.62	44.21	203.5	0.193
"1184-65-2"	"germane, trichloro"	559.78	46.21	275.96	0.17
"1185-33-7"	"2,2-dimethyl-1-butanol"	589	35.2	376	0.518
"1185-39-3"	"neoheptanoic acid"	680	29.9	442	0.717
"1186-31-8"	"4-methyl-1-hepteN-4-ol"	615	31	387.5	
"1186-53-4"	"2,2,3,4-tetramethylpentane"	592.6	26	490	0.314
"1187-13-9"	"trans-2-ethyl-2-butenoic acid"	696	33	389.4	
"1187-93-5"	"trifluoromethyl trifluorovinyl ether"	363	31.1	289	0.35
"1188-02-9"	"2-methylheptanoic acid"	692	26.9	494	0.779
"1189-99-7"	"2,5,5-trimethylheptane"	602.9	22.19	550	0.383
"119-36-8"	"methyl salicylate"	709	40.9	410	0.581
"119-61-9"	"benzophenone"	830	33.52	567.7	0.502
"119-64-2"	"1,2,3,4-tetrahydronaphthalene"	720	36.5	408	0.335
"119-65-3"	"isoquinoline"	803.15	51	374	0.304
"119-67-5"	"2-formylbenzoic acid"	772	38.3	372	0.819
"119-75-5"	"2-nitro-N-phenylaniline"	835	28.7	623	0.767
"1190-22-3"	"1,3-dichlorobutane"	614.09	35.94	351.5	0.308
"1190-34-7"	"5-methyl-5-hepteN-3-one"	635	31.6	451.8	
"1190-63-2"	"hexadecyl stearate"	890	6.5	2078.6	
"1190-76-7"	"cis-crotonitrile"	568	38.8	265	0.279
"1190-83-6"	"2,2,6-trimethylheptane"	593.4	21.28	573	0.396
"1191-04-4"	"2-hexenoic acid"	696	33	389.4	
"1191-16-8"	"3,3-dimethylallyl acetate"	592.33	28.3	428	0.432
"1191-25-9"	"hydroxycaproic acid"	730	35.8	435	1.178
"1191-75-9"	"7-hexadecenoic acid"	896	17	925.6	
"1191-96-4"	"ethylcyclopropane"	480.93	40.67	272.5	0.242
"1191-99-7"	"2,3-dihydrofuran"	524	55	205	0.226
"1192-18-3"	"cis-1,2-dimethylcyclopentane"	565.15	34.45	370	0.266
"1193-16-4"	"cis-3-methylcyclohexylamine"	622	34.9	393	0.386
"1193-17-5"	"trans-3-methylcyclohexylamine"	622	34.9	393	0.386
"1193-46-0"	"2,2-dimethylcyclohexanol"	645	35.9	448.2	
"1193-47-1"	"2,2-dimethylcyclohexanone"	670	32.5	421.7	
"1195-31-9"	"1-methyl-4-isopropylcyclohexene, (R)"	640	26	511	
"1195-32-0"	"1-methyl-4-(1-methylethenyl)benzene"	667.16	29.44	525.5	0.39
"1195-42-2"	"cyclohexylisopropylamine"	662	28	510.3	
"1195-93-3"	"2,2,6,6-tetramethylcyclohexanone"	710	27.5	519.5	
"1196-31-2"	"cis-5-methyl-2-isopropylcyclohexanone, (2R)"	710	27.5	519.5	
"1196-39-0"	"4-methylisoquinoline"	778.59	37.05	463	0.428
"1196-58-3"	"3-phenylpentane"	665.05	26.71	537.5	0.413
"1197-34-8"	"3,5-diethylphenol"	742.72	33.76	421.5	0.541
"1198-37-4"	"2,4-dimethylquinoline"	776.4	33.53	514.5	0.497
"120-12-7"	"anthracene"	873	29	554	0.486
"120-51-4"	"benzyl benzoate"	820	25.8	694	0.59
"120-61-6"	"dimethyl terephthalate"	772	27.8	529	0.637
"120-72-9"	"indole"	790	43	431	0.376
"120-80-9"	"pyrocatechol"	764	74.9	300	0.701
"120-82-1"	"1,2,4-trichlorobenzene"	725	37.2	395	0.358
"120-92-3"	"cyclopentanone"	624.5	46	258	0.288
"120-94-5"	"N-methylpyrrolidine"	550	42	300	0.226
"120-95-6"	"2,4-di-tert-amylphenol"	750	20	769.3	
"12002-48-1"	"trichlorobenzene"	726.09	38.31	405.3	0.374
"12027-06-4"	"ammonium iodide"	1104.32	18.18	1515.3	
"12037-82-0"	"phosphorus heptasulfide"	1167.97	32.53	781.99	
"12069-94-2"	"niobium carbide"	7689.49	818.86	204.55	
"12070-06-3"	"tantalum carbide"	8605.72	0	0	
"12071-33-9"	"uranium carbide"	7688.33	805.83	207.83	
"12075-68-2"	"ethyl aluminum sesquichloride"	791	70	337.5	
"121-05-1"	"N,N-diisopropyl ethylenediamine"	715	31.5	525.3	
"121-14-2"	"2,4-dinitrotoluene"	814	34	487	0.713
"121-17-5"	"4-chloro-3-nitrobenzotrifluoride"	686	27.4	490	0.607
"121-32-4"	"ethyl vanillin"	748	32.7	467	1.073
"121-33-5"	"vanillin"	777	40.1	415	0.757
"121-44-8"	"triethylamine"	535.15	30.4	390	0.316
"121-69-7"	"N,N-dimethylaniline"	687.15	36.3	465	0.402
"121-72-2"	"3-methyl-N,N-dimethylaniline"	705.58	32.84	482	0.413
"121-73-3"	"m-chloronitrobenzene"	742	39.8	432	0.492
"121-91-5"	"isophthalic acid"	1007	39.5	424	1.061
"12124-97-9"	"ammonium bromide"	1089.82	17.94	1515.3	
"12124-99-1"	"ammonium hydrogensulfide"	499.1	8.22	1515.3	
"12125-02-9"	"ammonium chloride"	882	16.4	1341.5	3.92
"12125-09-6"	"phosphonium iodide"	539.7	77.61	158.4	0.326
"12165-69-4"	"phosphorus (III) sulfide"	1224.35	81.55	327.02	
"122-32-7"	"glycerol trioleate"	1640	4.7	3090	
"122-39-4"	"diphenylamine"	817	31.8	539	0.53
"122-60-1"	"phenyl glycidyl ether"	720	29.5	464	0.594
"122-66-7"	"hydrazobenzene"	939	30.9	599.9	0.672
"122-97-4"	"benzenepropanol"	694	34.3	440	0.803
"12211-52-8"	"ammonium cyanide"	491.32	109.47	102.24	0.425
"12279-90-2"	"arsenic sulfide"	1314.59	28.47	522.03	
"123-01-3"	"dodecylbenzene"	780	15.6	923	0.733
"123-02-4"	"tridecylbenzene"	790	14.8	978	0.78
"123-04-6"	"3-(chloromethyl)heptane"	642.41	24.43	532.5	0.462
"123-05-7"	"2-ethylhexanal"	607	25.8	474	0.52
"123-07-9"	"p-ethylphenol"	716.45	42.9	374	0.515
"123-08-0"	"p-hydroxybenzaldehyde"	844	49.9	361	0.617
"123-15-9"	"2-methylpentanal"	569.05	34.12	382.5	0.433
"123-17-1"	"2,6,8-trimethylnonaN-4-ol"	712.9	19.7	704.5	0.635
"123-19-3"	"4-heptanone"	602	29.2	434	0.412
"123-20-6"	"vinyl butanoate"	569	32.5	376	0.434
"123-25-1"	"diethyl succinate"	663	25.3	567.4	0.67
"123-29-5"	"ethyl nonanoate"	652	20.47	658.7	0.639
"123-31-9"	"p-hydroquinone"	823	74.5	300	0.682
"123-38-6"	"propionaldehyde"	504.4	49.2	204	0.256
"123-39-7"	"N-methylformamide"	721	56.2	215	0.41
"123-42-2"	"diacetone alcohol"	606	36	387	0.768
"123-44-4"	"2,2,4-trimethyl-1-pentanol"	603.02	28.69	485.5	0.706
"123-48-8"	"2,2,4,6,6-pentamethyl-3-heptene"	656.77	18.72	694.8	0.548
"123-51-3"	"3-methyl-1-butanol"	577.2	39.3	327	0.589
"123-54-6"	"acetylacetone"	646.65	39.6	323	0.211
"123-56-8"	"succinimide"	858	59.7	271	0.483
"123-62-6"	"propionic anhydride"	623	32.7	396	0.56
"123-63-7"	"paraldehyde"	579	35	365	0.437
"123-66-0"	"ethyl hexanoate"	602	26.1	494	0.395
"123-68-2"	"allyl hexanoate"	628	24.5	504.8	
"123-72-8"	"butyraldehyde"	537.2	43.2	258	0.277
"123-73-9"	"crotonaldehyde"	569	42.5	250	0.338
"123-75-1"	"pyrrolidine"	568.55	56.1	249	0.267
"123-76-2"	"levulinic acid"	738	40.2	343	0.756
"123-79-5"	"di-n-octyl adipate"	830	11.3	1260	1.048
"123-82-0"	"2-heptanamine"	565.35	29.19	459.3	0.409
"123-86-4"	"butyl acetate"	575.4	30.9	389	0.439
"123-91-1"	"1,4-dioxane"	587	52.08	238	0.28
"123-92-2"	"3-methylbutyl acetate"	586.1	27.6	442	0.489
"123-95-5"	"butyl stearate"	764	11.1	1230	1.025
"123-96-6"	"2-octanol"	629.6	27.54	518	0.584
"123-99-9"	"azelaic acid"	811	25.6	610	1.172
"123434-07-1"	"2,4,6-trimethyl-3-heptene, isomer"	616.98	21.85	581.3	0.457
"124-02-7"	"N-allyl-2-propeN-1-amine"	556	33.2	392	0.448
"124-04-9"	"adipic acid"	809	35.3	400	1.051
"124-06-1"	"ethyl myristate"	721	15	883.5	
"124-07-2"	"octanoic acid"	694.26	27.79	499	0.771
"124-09-4"	"hexamethylenediamine"	660	32.9	475	0.635
"124-10-7"	"methyl tetradecanoate"	708	15.8	838.4	
"124-11-8"	"1-nonene"	594	23.3	526	0.41
"124-12-9"	"octanenitrile"	661.13	24.73	509.5	0.562
"124-13-0"	"1-octanal"	638.9	29.6	488	0.464
"124-17-4"	"diethylene glycol monobutyl ether acetate"	679	20.6	682	0.842
"124-18-5"	"decane"	617.7	21.1	600	0.492
"124-19-6"	"1-nonanal"	658	27.3	527	0.512
"124-22-1"	"dodecylamine"	696	18.8	735	0.764
"124-25-4"	"tetradecanal"	717.32	16.15	836.5	0.784
"124-28-7"	"dimethyloctadecylamine"	779.7	9.7	1170	0.763
"124-30-1"	"octadecylamine"	777.4	11	1060	0.905
"124-38-9"	"carbon dioxide"	304.19	73.82	94	0.2276
"124-40-3"	"dimethylamine"	437.2	53.4	180	0.3
"124-63-0"	"methanesulfonyl chloride"	676	52.3	260	0.3
"124-68-5"	"2-amino-2-methyl-1-propanol"	571.82	41.4	300	0.711
"124-70-9"	"dichlorovinylmethylsilane"	544.1	29.4	409	0.293
"124-73-2"	"1,2-dibromotetrafluoroethane"	487.8	33.93	341	0.243
"12440-00-5"	"phosphorous (III) oxide"	714.86	52.08	312.69	0.218
"12504-41-5"	"silicon monosulfide"	2033.65	298.95	148.18	
"125164-51-4"	"pentadecyl butanoate"	773.3	10.1	1157	
"126-30-7"	"neopentyl glycol"	635	42.4	345	1.126
"126-33-0"	"sulfolane"	853	50.3	300	0.382
"126-98-7"	"methacrylonitrile"	554	38.8	265	0.301
"126-99-8"	"chloroprene"	525	42.6	273	0.197
"127-17-3"	"pyruvic acid"	634.52	56.5	239	0.671
"127-18-4"	"tetrachloroethylene"	620	44.9	248	0.214
"127-19-5"	"N,N-dimethylacetamide"	658	40.3	321	0.364
"127-27-5"	"pimaric acid"	807.1	16.48	998	0.792
"127-91-3"	"βpinene"	643	27.6	494	0.325
"128-37-0"	"2,6-di-tert-butyl-p-cresol"	724	21.1	757	0.679
"128-39-2"	"2,6-di-tert-butylphenol"	765	22.8	704	0.631
"129-00-0"	"pyrene"	936	26.1	660	0.507
"129619-37-0"	"(3R,6R)-3,6-octanediol"	692.04	31	517	1.28
"1300-21-6"	"dichloroethane"	542	52.18	230	0.266
"1300-71-6"	"dimethyl phenol"	713.62	44.32	376.8	0.513
"1300-94-3"	"5-methyl-2-pentylphenol"	755.67	27.47	598.7	0.59
"13006-29-6"	"1,2-undecanediol"	709.89	23.07	683.5	1.317
"13007-92-6"	"chromium carbonyl"	690.8	56.96	302.5	0.193
"13019-20-0"	"2-methyl-3-heptanone"	624	26.4	469	0.528
"13019-22-2"	"9-deceN-1-ol"	643	23	527.6	
"13021-15-3"	"N,N,2,4,6-pentamethylaniline"	700	27.5	566.1	
"13023-60-4"	"2,2-diethyl-1-butanol"	605.76	28.44	491.5	0.738
"13024-80-1"	"hexacosylbenzene"	913.77	6.38	1719.5	
"1303-33-9"	"arsenic (III) sulfide"	1608.24	68.38	265.93	
"1303-96-4"	"sodium tetraborate decahydrate"	3030	0	0	
"13038-21-6"	"8-noneN-1-ol"	629.65	24.67	533.8	0.541
"1304-76-3"	"bismuth oxide"	3367.96	448.26	163.66	
"1305-78-8"	"calcium oxide"	6020	0	0	
"13054-87-0"	"2-amino-1-butanol, (±)-"	571.82	41.4	300	0.711
"1306-19-0"	"cadmium oxide"	2983.96	246.06	302.5	0.626
"13065-07-1"	"1,2,3,4-tetrahydro-2,7-dimethylnaphthalene"	737.62	27.73	548.5	0.424
"1309-48-4"	"magnesium oxide"	5950	33.91	209.5	0.2137
"1309-64-4"	"antimony (III) oxide"	2765.72	228.06	302.5	0.604
"13093-04-4"	"N,N'-dimethyl-1,6-hexanediamine"	715	31.5	525.3	
"131-11-3"	"dimethyl phthalate"	766	27.8	530	0.657
"131-16-8"	"dipropyl phthalate"	768	19.9	789	0.855
"1310-58-3"	"potassium hydroxide"	2624	214.88	302.5	0.586
"1310-73-2"	"sodium hydroxide"	2820	250	200	0.477
"131105-01-6"	"tetraphosphorus hexasulfide"	1130.96	35.11	701.64	
"13116-53-5"	"1,2,2,3-tetrachloropropane"	662.36	37.41	388.5	0.31
"13116-60-4"	"1,1,2,2-tetrachloropropane"	654.51	37.78	382.5	0.28
"1313-27-5"	"molybdenum oxide"	2319.46	191.26	302.5	0.552
"13138-51-7"	"1,2,3,3-tetrachlorobutane"	690	34	439.5	
"1314-24-5"	"phosphorus trioxide"	667.6	65.77	221.12	
"1314-56-3"	"phosphorus pentoxide"	1245.86	100.51	270.02	
"1314-68-7"	"rhenium heptoxide"	942	85.35	334	0.313
"1314-80-3"	"phosphorus (V) sulfide"	1291	232	138.81	0.5936
"1314-85-8"	"phosphorus sesquisulfide"	1043.94	47.34	480.31	
"1314-86-9"	"phosphorous triselinide"	986.59	42.07	510.87	
"1314-87-0"	"lead sulfide"	2531.19	208.72	302.5	0.577
"1314-95-0"	"tin (II) sulfide"	2486.26	299.96	180.55	
"13147-06-3"	"9-tetradecenoic acid"	856	18	839	
"13150-81-7"	"2,6-dimethyldecane"	638.02	18.05	695.5	0.519
"13151-04-7"	"5-methyl-1-heptene"	560.59	26.68	458.5	0.357
"13151-05-8"	"4-methyl-1-heptene"	559.87	26.68	458.5	0.357
"13151-17-2"	"5-methyl-cis2-hexene"	538.78	29.86	401.5	0.302
"13151-27-4"	"2-methyl-1-decene"	637.68	20.16	633.5	0.491
"13151-34-3"	"3-methyldecane"	632.86	19.48	645.5	0.507
"13151-35-4"	"5-methyldecane"	627.4	19.48	645.5	0.507
"13154-12-6"	"cis-1-bromo-1-hexene"	609.39	35.73	413.5	0.402
"13154-13-7"	"trans-1-bromo-1-hexene"	609.39	35.73	413.5	0.402
"13163-73-0"	"trans-2-methyl-5-isopropylcyclohexanone, (2S)"	710	27.5	519.5	
"1317-36-8"	"lead oxide"	2842.26	234.37	302.5	0.612
"1317-80-2"	"rutile"	4763.33	792	131.01	
"13172-91-3"	"5-methyl-3-heptene"	564.74	26.94	458.8	0.328
"13175-27-4"	"1,6-heptanediol"	627.98	34.68	459.5	1.245
"13187-99-0"	"2-bromododecane"	726.55	18.89	769.5	0.69
"1319-77-3"	"cresol mixture"	702.68	49.05	290.3	0.465
"132-64-9"	"dibenzofuran"	824	36.4	495	0.399
"132-65-0"	"dibenzothiophene"	897	38.6	512	0.398
"1320-67-8"	"methoxypropanol"	569	42.4	297.3	0.759
"13205-44-2"	"borine carbonyl"	340.03	55.03	140.74	0.188
"13205-60-2"	"ethylisobutylamine"	538.12	31.81	400.5	0.432
"1321-89-7"	"isodecanal"	657	21.5	580	0.642
"1321-94-4"	"methylnaphthalene"	766.52	34.55	515	0.347
"1323-65-5"	"dinonylphenol"	902	12.4	1230	1.125
"13231-81-7"	"3-methyl-1-hexanol"	606.68	31.21	440.5	0.764
"13250-12-9"	"(R)-(-)-sec-butylamine"	503.5	39.45	299.9	0.331
"13254-34-7"	"2,6-dimethyl-2-heptanol"	598.01	25.95	541.5	0.748
"13269-52-8"	"trans-3-hexene"	509	31.7	351	0.285
"1327-53-3"	"arsenic trioxide"	1200	40	183.19	0.0611
"132739-31-2"	"di(propylene glycol) tert-butyl ether, isomers"	667	22.3	631	0.997
"13279-85-1"	"1,1,1-trichlorobutane"	614.26	34.85	395.5	0.3
"13279-87-3"	"1,1,3-trichlorobutane"	628.34	34.72	394.5	0.332
"13280-60-9"	"1,3,3-trichlorobutane"	633.65	34.85	395.5	0.3
"13281-11-3"	"2-nonanethiol"	672	23	582	0.473
"13283-01-7"	"tungsten (VI) chloride"	923	49.75	422	
"13286-90-3"	"5-methyl-2-thiahexane"	607.44	31.96	419.5	0.351
"13286-91-4"	"3-methyl-2-thiahexane"	608.92	31.96	419.5	0.351
"13286-92-5"	"3,3-dimethyl-2-thiapentane"	632	31.3	435	0.284
"13287-09-7"	"1,1-dicyclohexylhexadecane"	856.76	8.18	1469.5	0.704
"13287-19-9"	"2-methyl-3-isopropyloctane"	638.89	18.17	689.5	0.491
"13294-71-8"	"2-bromo-2-butene"	568.74	45.55	301.8	0.301
"133-37-9"	"DL-tartaric acid"	828	51.8	305	2.011
"1330-16-1"	"(-)-a-pinene"	647	27.8	505.3	0.341
"1330-20-7"	"xylenes"	620.21	35.99	374.5	0.317
"1330-61-6"	"isodecyl acrylate"	716	19	717.4	
"1331-22-2"	"methylcyclohexanone"	650	35.5	377.6	
"1331-29-9"	"ethyldichlorobenzene"	735	33	446	
"1331-43-7"	"diethylcyclohexane  (mixed isomers)"	667	25.7	534	0.274
"1331-50-6"	"trimethyl nonanone"	687.46	18.79	713.5	0.691
"13320-56-4"	"1,1-dibromopentane"	665.55	41.52	433.5	0.48
"13325-10-5"	"4-amino-1-butanol"	571.82	41.4	300	0.711
"13329-71-0"	"isopropyloctadecylamine"	783.99	9.76	1247	0.817
"1333-41-1"	"methylpyridine"	637.38	44.74	321.9	0.284
"1333-74-0"	"hydrogen"	33.18	13.13	64.15	-0.215
"13343-98-1"	"1-butoxy-2-methoxyethane"	618	29.4	460.6	
"1335-09-7"	"6-methyl-6-hepteN-2-ol"	615	31	387.5	
"13360-61-7"	"1-pentadecene"	708	15.7	875	0.684
"13360-63-9"	"ethylbutylamine"	548.52	31.53	406.5	0.463
"13361-63-2"	"4,4-dimethyl-1-pentyne"	538.28	33.68	378.5	0.21
"13362-52-2"	"1,13-tridecanediol"	759.19	19.2	801.5	1.324
"13362-80-6"	"4,8-dimethylquinoline"	784.5	33.53	514.5	0.497
"13364-16-4"	"1-amino-2-methylpentane"	580.19	33.45	394.5	0.451
"13368-65-5"	"(R)-(+)-3-methylcyclohexanone"	650	35.5	377.6	
"13373-83-6"	"octadecyl butanoate"	797.2	8.5	1331	
"13373-97-2"	"1-eicosanethiol"	814.57	10.58	1209.5	0.809
"13389-42-9"	"trans-2-octene"	577	25.8	484	0.338
"13400-13-0"	"cesium fluoride"	2482.33	204.69	302.5	0.572
"13402-60-3"	"2-decanethiol"	690	21	637	0.506
"13417-08-8"	"methylhexadecylamine"	745	12.4	1005	0.842
"13417-43-1"	"1-chloro-2-methyl-2-butene"	561.69	35.41	343.2	0.275
"13419-69-7"	"trans-2-hexenoic acid"	696	33	389.4	
"13423-15-9"	"3-methyltetrahydrofuran"	639.01	42.89	277.5	0.264
"13432-25-2"	"2,4-dimethyl-3-hexanol"	588.35	28.6	484.5	0.741
"1344-28-1"	"aluminum oxide"	5335	1953.2	68.13	1.2
"13444-90-1"	"nitryl chloride"	394.96	60.07	143.22	
"13446-74-7"	"rubidium fluoride"	2738.03	225.78	302.5	0.601
"13450-88-9"	"gallium (III) bromide"	806.7	0	303	
"13450-90-3"	"gallium trichloride"	694	38.2	263	0.4577
"13450-91-4"	"gallium (III) iodide"	951	0	395	
"13450-92-5"	"germanium bromide"	718	44.17	392	0.169
"13450-95-8"	"germanium (IV) iodide"	973	56.59	500	
"13451-11-1"	"tantalum (V) bromide"	974	0	461	
"13453-12-8"	"antimony (V) iodide"	1096.7	0	0	
"13454-99-4"	"phosphorus (V) dichloride trifluoride"	457.02	40.48	257.17	0.118
"13456-23-0"	"1,1-diphenylhexadecane"	850.1	11.3	1556	0.958
"13456-25-2"	"1,1-diphenyl-1-hexadecene"	881.36	9.85	1368.5	0.8
"13463-39-3"	"nickel carbonyl"	508.4	32.39	357.53	0.056
"13463-40-6"	"iron pentacarbonyl"	607.2	35.24	392.52	0.091
"13465-07-1"	"hydrogen disulfide"	542.39	88.36	139.83	0.366
"13465-66-2"	"selenium tetrafluoride"	608.64	85.6	154.88	
"13465-71-9"	"silane, trifluoro"	291.02	39.95	165.93	0.079
"13465-73-1"	"silane, monobromo"	454	56.44	177	0.155
"13465-74-2"	"silane, bromotrichloro"	545.5	38.71	306.93	
"13465-76-4"	"silane, tribromochloro"	614.74	43.72	306.27	
"13465-77-5"	"disilane, hexachloro"	660.96	29.11	517.27	0.035
"13465-78-6"	"silane, monochloro"	396.65	48.43	174	0.136
"13465-84-4"	"silane, tetraiodo"	944	50.54	558	
"13470-08-1"	"titanium (III) fluoride"	2716.12	431.33	137.17	
"13470-11-6"	"tungsten (V) bromide"	923.75	57.75	348.45	
"13470-14-9"	"tungsten (V) chloride"	861.73	53.61	350.15	
"13471-42-6"	"3-hexanol, (R)"	581.8	34.61	377.4	0.582
"13475-76-8"	"11-butyldocosane"	839.06	7.25	1566.2	
"13475-77-9"	"9-octyleicosane"	864.27	6.55	1685.6	
"13475-78-0"	"5-ethyl-2-methylheptane"	606.7	21.89	555	0.424
"13475-79-1"	"2,4-dimethyl-3-isopropylpentane"	614.4	23.41	521	0.365
"13475-81-5"	"2,2,3,3-tetramethylhexane"	623	25.1	557	0.366
"13475-82-6"	"2,2,4,6,6-pentamethylheptane"	629.3	18.52	679.5	0.375
"13478-45-0"	"niobium (V) bromide"	954.75	46.15	450.62	
"13491-79-7"	"2-tert-butylcyclohexanol"	665	30.9	529.8	
"13494-80-9"	"tellurium"	4840	2617.1	46.13	
"13497-91-1"	"phosphorous chloride"	696.14	40.59	373.56	
"13499-05-3"	"hafnium (IV) chloride"	725.7	54.2	314	
"135-01-3"	"o-diethylbenzene"	668	28.8	502	0.34
"135-98-8"	"sec-butylbenzene"	664.54	29.5	497	0.279
"13501-73-0"	"3,5-dimethyl-1-hexanol"	616.17	28.35	490.5	0.773
"13517-10-7"	"boron triiodide"	773	60.59	356	
"13520-77-9"	"tungsten (VI) oxytetrabromide"	903.22	62.22	316.2	
"13520-78-0"	"tungsten (VI) oxytetrachloride"	782	52.13	338	
"13520-79-1"	"tungsten (VI) oxytetrafluoride"	707.67	89.88	171.51	
"13520-87-1"	"vanadyl chloride"	636	0	171	
"13537-33-2"	"silane, monofluoro"	286.28	46.88	139.12	0.125
"13540-50-6"	"2',5'-dimethyldiphenylmethane"	790.1	24.36	659.5	0.521
"13540-56-2"	"3',4'-dimethyldiphenylmethane"	794.27	24.36	659.5	0.521
"13550-49-7"	"heavy ammonia"	388.4	125.71	70.38	0.447
"13552-21-1"	"1-amino-2-butanol"	571.82	41.4	300	0.711
"13556-55-3"	"1,2,3,4-tetrahydro-2,2-dimethylnaphthalene"	737.62	27.73	548.5	0.424
"13556-58-6"	"1-ethyl-[1,2,3,4-tetrahydronaphthalene]"	735.44	27.73	548.5	0.424
"13569-43-2"	"germane, bromo"	515.2	66.61	168.47	
"13569-49-8"	"rhenium (III) bromide"	1226.09	0	0	
"13596-23-1"	"octachlorotrisilane"	775.41	24.7	714.99	
"13597-73-4"	"disiloxane"	416.86	36.19	262.41	0.078
"13598-36-2"	"phosphorous acid"	711.92	88.43	175.37	
"13598-42-0"	"silane, iodo"	515	69.41	160	0.276
"136-35-6"	"1,3-diphenyltriazene"	845	28.2	642	0.623
"136-60-7"	"butyl benzoate"	724	25.9	555	0.577
"136-81-2"	"o-amylphenol"	751	29.8	546	0.569
"13602-13-6"	"1,2-dichloro-2-butene"	640	37.98	332	0.302
"13616-82-5"	"2,4-dimethylthiophenol"	718.58	38.06	429.5	0.373
"13632-93-4"	"1-methyl-2,3-diethylbenzene"	680.84	25.69	543.5	0.441
"13632-94-5"	"1-methyl-2,5-diethylbenzene"	681.55	25.69	543.5	0.441