"CASRN"	"Chemical"	"Tc"	"Pc"	"Vc"	"omega"
"7286-40-0"	"3-nitrohexane"	639	31.78	447.5	0.523
"7289-44-3"	"2-thiatridecane"	733.68	18.06	761.5	0.631
"7289-45-4"	"2-thiahexadecane"	775.15	14.34	929.5	0.729
"7289-52-3"	"1-methoxy-decane"	640	19.53	645.5	0.656
"7294-05-5"	"2,2,3-trimethyl-3-pentanol"	587.7	29.03	480.5	0.639
"7300-03-0"	"3-methyl-3-heptene"	564.74	26.94	458.8	0.328
"7307-55-3"	"undecylamine"	682	20.2	682	0.707
"7307-58-6"	"diethyltetradecylamine"	723.91	11.83	1081.5	0.804
"7309-44-6"	"3-thianonane"	660.72	25.79	537.5	0.465
"7311-30-0"	"methyldodecylamine"	696.8	16.9	785	0.726
"7317-85-3"	"ethyloctadecylamine"	773.9	10.5	1170	0.981
"7318-67-4"	"1,cis-4-hexadiene"	514.53	34.6	332.5	0.266
"73180-09-3"	"1-fluorotetradecane"	688.7	14.3	828	0.667
"7319-00-8"	"1,trans-4-hexadiene"	514.53	34.6	332.5	0.266
"732-26-3"	"2,4,6-tri-tert-butylphenol"	770	17	854.9	
"7321-48-4"	"cis-4-chloro-4-octene"	640.48	25.74	512.5	0.43
"73210-25-0"	"2,2,5-trimethylcyclohexanol"	655	33.9	478.8	
"7327-60-8"	"nitrilotrisacetonitrile"	823	26.4	485	0.924
"7328-91-8"	"2,2-dimethyl-1,3-propanediamine"	637.67	42.1	358	0.591
"73398-15-9"	"3-ethyl-2-methyl-1,5-hexadiene"	616	32.8	400.7	
"7344-34-5"	"4-methyl-1H-indene"	693.5	34.6	434.5	0.332
"7348-71-2"	"1-bromo-trans-2-pentene"	597.03	40.21	357.5	0.357
"7348-78-9"	"1-bromo-cis2-pentene"	597.03	40.21	357.5	0.357
"73513-50-5"	"2-methyl-3-hexenoic acid"	716	29	451.8	
"73548-71-7"	"4,5-dimethyl-2-hexene"	564.74	26.94	458.8	0.328
"73548-72-8"	"6-methyl-2-heptene"	564.74	26.94	458.8	0.328
"7357-93-9"	"3-methyl-2-ethyl-1-butene"	535.82	29.7	403.5	0.288
"7359-72-0"	"1,2,3-trichloro-4-methylbenzene"	737	33.4	447	0.26
"73642-91-8"	"1,2-dibromononane"	729.44	26.68	657.5	0.659
"7367-38-6"	"5-butyl-4-nonene"	674.44	17.39	750.8	0.592
"7372-85-2"	"2,5-dimethylbiphenyl"	792.44	31.36	593	0.458
"7372-86-3"	"2-methyl-6-ethylnaphthalene"	766.56	27.13	577.5	0.488
"7372-92-1"	"7-methyl-1H-indene"	693.5	34.6	434.5	0.332
"7373-13-9"	"2-octadecanone"	758.47	12.03	1049.5	0.838
"7378-99-6"	"dimethyloctylamine"	650.6	21.2	620	0.415
"7379-12-6"	"2-methyl-3-hexanone"	583.8	30.22	427.5	0.451
"7383-90-6"	"3,4'-dimethylbiphenyl"	808.3	31.3	593	0.414
"7385-78-6"	"3,4-dimethyl-1-pentene"	528.31	29.8	396.5	0.283
"7385-82-2"	"5-methyl-trans-2-hexene"	536.72	29.86	401.5	0.302
"7397-06-0"	"4-tert-butyl-o-xylene"	697.15	23.61	602	0.437
"7399-49-7"	"1-methyl-2-(1-methylethenyl)benzene"	647.11	29.44	525.5	0.39
"7399-50-0"	"2-(1-ethylpropyl)pyridine"	693	27	535	
"74-31-7"	"N,N'-diphenyl-p-phenylenediamine"	1017	23.1	817	0.859
"74-82-8"	"methane"	190.56	45.99	98.6	0.012
"74-83-9"	"methyl bromide"	467	80	156	0.192
"74-84-0"	"ethane"	305.32	48.72	145.5	0.1
"74-85-1"	"ethylene"	282.34	50.41	131	0.086
"74-86-2"	"acetylene"	308.3	61.38	112	0.191
"74-87-3"	"methyl chloride"	416.25	66.8	143	0.153
"74-88-4"	"methyl iodide"	528	73.7	185	0.197
"74-89-5"	"methylamine"	430.05	74.6	154	0.281
"74-90-8"	"hydrogen cyanide"	456.65	53.9	139	0.41
"74-93-1"	"methyl mercaptan"	469.95	72.3	145	0.158
"74-95-3"	"dibromomethane"	611	71.7	223	0.21
"74-96-4"	"bromoethane"	503.8	62.3	215	0.255
"74-97-5"	"bromochloromethane"	557	64.7	204	0.206
"74-98-6"	"propane"	369.83	42.48	200	0.152
"74-99-7"	"methylacetylene"	402.4	56.3	164	0.212
"7409-44-1"	"heptyloxyethanol"	654	26.4	540.7	
"74112-36-0"	"2-methylheptyl acetate"	650.6	20.8	617.5	0.574
"7415-31-8"	"1,3-dichloro-trans-2-butene"	618	37.8	325	0.242
"7417-48-3"	"3-methyl-1,2-pentadiene"	528.84	36.51	333.5	0.239
"7423-69-0"	"3,5-dimethyl-1-hexene"	551.31	26.9	452.5	0.327
"7425-14-1"	"2-ethylhexyl 2-ethylhexanoate"	721	15	871.7	
"7429-90-5"	"aluminum"	9300	5700	39	-0.3054
"7429-91-6"	"dysprosium"	8561.5	0	0	
"7433-56-9"	"trans-5-decene"	616.98	21.85	581.3	0.457
"7433-78-5"	"cis-5-decene"	616.98	21.85	581.3	0.457
"7435-50-9"	"1,3,6,7-tetramethylnaphthalene"	810.54	23.89	633.5	0.535
"7439-88-5"	"iridium"	15035	72356	5.18	
"7439-89-6"	"iron"	9340	10150	28	-0.0106
"7439-90-9"	"krypton"	209.35	55.02	91.2	
"7439-91-0"	"lanthanum"	9511	5460	36.5	
"7439-92-1"	"lead"	5400	861.3	93.2	
"7439-93-2"	"lithium"	2966	217.87	329.7	-0.0556
"7439-94-3"	"lutetium"	4128.66	5162.9	19.95	
"7439-95-4"	"magnesium"	2241.04	2802.4	19.95	
"7439-96-5"	"manganese"	6902.82	4871.7	35.34	
"7439-97-6"	"mercury"	1735	1608	35	-0.1644
"7439-98-7"	"molybdenum"	9620	10349	38.3	0.924
"7440-00-8"	"neodymium"	10665.1	6892.1	38.6	
"7440-01-9"	"neon"	44.4	26.53	41.7	-0.0395
"7440-02-0"	"nickel"	6986.15	4918.5	35.43	
"7440-03-1"	"niobium"	17904.1	10418	42.87	
"7440-04-2"	"osmium"	16878.7	9938.9	42.36	
"7440-05-3"	"palladium"	10669.1	6894.1	38.6	
"7440-06-4"	"platinum"	6983	8105.9	759.1	
"7440-07-5"	"plutonium"	11130.13	0	0	
"7440-08-6"	"polonium"	3013.08	2515.3	29.88	0.011
"7440-09-7"	"potassium"	2223	160	209	-0.2028
"7440-10-0"	"praseodymium"	12306.26	0	0	
"7440-12-2"	"promethium"	10228.86	0	0	
"7440-14-4"	"radium"	4862.82	3684.3	32.92	
"7440-15-5"	"rhenium"	21482.8	12047	32.1	
"7440-16-6"	"rhodium"	12906.6	8024.4	40.12	
"7440-17-7"	"rubidium"	2093	160	247	
"7440-18-8"	"ruthenium"	15247.1	9165	41.5	
"7440-19-9"	"samarium"	5082.92	3816.7	33.22	
"7440-20-2"	"scandium"	8035.08	5499	36.45	
"7440-21-3"	"silicon"	5159	537	232.6	1.514
"7440-22-4"	"silver"	6410	4810	339	0.1499
"7440-23-5"	"sodium"	2573	354.64	116	-0.1055
"7440-24-6"	"strontium"	4267.2	3319.8	32.06	
"7440-25-7"	"tantalum"	19900.9	11334	43.8	
"7440-26-8"	"technetium"	17400.8	10183	42.62	
"7440-27-9"	"terbium"	11138.1	0	0	
"7440-28-0"	"thallium"	4648.06	3554	32.62	
"7440-29-1"	"thorium"	17668.05	0	0	
"7440-30-4"	"thulium"	6283.16	4519.7	34.68	
"7440-31-5"	"tin (white)"	7400	6099.8	115.1	0.101
"7440-32-6"	"titanium"	6400	7010.2	22.77	0.915
"7440-33-7"	"tungsten"	14756	11497	33.9	0.077
"7440-34-8"	"actinium"	11010.67	0	0	
"7440-35-9"	"americium"	6514.79	0	0	
"7440-36-0"	"antimony"	5070	3865.6	32.72	
"7440-37-1"	"argon"	150.86	48.98	74.59	0
"7440-38-2"	"arsenic"	1673	223	35	-0.368
"7440-39-3"	"barium"	3572.13	381.4	233.62	0.264
"7440-41-7"	"beryllium"	5205	392	311.5	0.2274
"7440-42-8"	"boron"	7934.59	8417.5	23.51	0.826
"7440-43-9"	"cadmium"	2291	861.7	37.9	0.05
"7440-44-0"	"carbon (amphorous)"	6810	2230	18.8	0.3268
"7440-45-1"	"cerium"	11993.8	0	0	
"7440-46-2"	"cesium"	1938	94	341	
"7440-47-3"	"chromium"	8560.93	5784.1	36.92	
"7440-48-4"	"cobalt"	7398.48	5148.7	35.84	
"7440-50-8"	"copper"	5123	6415.5	61	
"7440-52-0"	"erbium"	9714.25	0	0	
"7440-53-1"	"europium"	5150	3547.9	36.21	
"7440-54-2"	"gadolinium"	11309.81	0	0	
"7440-55-3"	"gallium"	7620	5126.3	75.3	
"7440-56-4"	"germanium"	9803	6511	45	-0.0715
"7440-57-5"	"gold"	4398	6354.4	50.3	
"7440-58-6"	"hafnium"	16861.98	0	0	
"7440-59-7"	"helium-4"	5.2	2.28	57.3	-0.39
"7440-60-0"	"holmium"	9067.21	0	0	
"7440-61-1"	"uranium"	13712.6	8421.6	40.62	
"7440-62-2"	"vanadium"	11325	10314	32.8	-0.2408
"7440-63-3"	"xenon"	289.74	58.4	118	0
"7440-64-4"	"ytterbium"	4365.92	3380.9	32.21	
"7440-65-5"	"yttrium"	9381.32	6222	37.61	
"7440-66-6"	"zinc"	3170	2904	33	0.0459
"7440-67-7"	"zirconium"	8802	9364.6	23.45	0.859
"7440-68-8"	"astatine"	1096.37	1236.3	22.12	0.641
"7440-69-9"	"bismuth"	4620	770	104	-0.2366
"7440-70-2"	"calcium"	3267	153	517.1	0.1167
"7440-73-5"	"francium"	1606.46	1790.2	22.38	0.682
"7440-74-6"	"indium"	6730	2432	82.6	
"74421-05-9"	"2,4-dimethyl-2,4-heptadiene"	616	32.8	400.7	
"7443-52-9"	"trans-2-methylcyclohexanol"	617	37.9	374	0.679
"7443-55-2"	"trans-3-methylcyclohexanol"	627	37.9	374	0.681
"7443-70-1"	"cis-2-methylcyclohexanol"	614	37.9	374	0.681
"7446-07-3"	"tellurium dioxide"	2463.1	756.05	70.96	
"7446-08-4"	"selenium dioxide"	961.16	79.26	302.5	0.291
"7446-09-5"	"sulfur dioxide"	430.75	78.84	122	0.2453
"7446-11-9"	"sulfur trioxide"	490.85	82.1	127	0.424
"7446-70-0"	"aluminum chloride"	629	26.3	261	0.3555
"7447-39-4"	"cupric chloride"	2010	170.04	294.85	0.623
"7447-40-7"	"potassium chloride"	3470	180	625	-0.1212
"7447-41-8"	"lithium chloride"	2695.68	222.29	302.5	0.596
"7452-79-1"	"ethyl sec-pentanoate"	587.95	28.4	442	0.407
"74581-94-5"	"2-ethyl-3-methylhexanoic acid"	703	24.5	547	0.831
"7461-19-0"	"1-bromohexatriacontane"	1029.64	4.72	2113.5	
"74683-66-2"	"2-nonanol, (±)"	614.43	25.85	543.1	0.768
"74742-08-8"	"3-nonanol, (±)"	614.43	25.85	543.1	0.768
"74742-10-2"	"2-decanol, (±)"	629	23.55	598	0.793
"74744-28-8"	"1-undeceN-3-yne"	640	25	544.1	
"74744-36-8"	"1-dodeceN-3-yne"	655	22	630.3	
"74764-56-0"	"5-ethyl-4-methyl-5-hepteN-3-one"	675	25.6	584.2	
"74778-22-6"	"4-octanol, (±)"	600.92	28.49	488	0.733
"7487-94-7"	"mercuric chloride"	973	77.51	302.5	0.284
"74926-97-9"	"2-sec-butyl-6-isopropylphenol"	762.67	23.97	677.7	0.621
"74926-98-0"	"2-isopropyl-6-(1-methylbutyl)phenol"	765	22.8	704	0.631
"7493-82-5"	"pentyl heptanoate"	667	18.93	717.3	0.699
"75-00-3"	"ethyl chloride"	460.35	52.7	200	0.19
"75-01-4"	"vinyl chloride"	432	56.7	179	0.1
"75-02-5"	"vinyl fluoride"	327.8	52.4	144	0.143
"75-03-6"	"ethyl iodide"	561	59.9	238	0.224
"75-04-7"	"ethylamine"	456.15	56.2	207	0.285
"75-05-8"	"acetonitrile"	545.5	48.33	173	0.338
"75-07-0"	"acetaldehyde"	466	55.5	154	0.291
"75-08-1"	"ethyl mercaptan"	499.15	54.9	207	0.188
"75-09-2"	"dichloromethane"	510	60.8	185	0.199
"75-10-5"	"difluoromethane"	351.26	57.84	123	0.277
"75-11-6"	"diiodomethane"	747	54.7	272	0.141
"75-12-7"	"formamide"	771	78	163	0.453
"75-15-0"	"carbon disulfide"	552	79	160	0.1107
"75-18-3"	"dimethyl sulfide"	503.04	55.3	201	0.194
"75-19-4"	"cyclopropane"	397.91	54.95	162.8	0.127
"75-21-8"	"ethylene oxide"	469.15	71.9	140.3	0.197
"75-24-1"	"trimethyl aluminum"	620	40	271	0.218
"75-25-2"	"bromoform"	696	60.9	286	0.156
"75-26-3"	"2-bromopropane"	532	55.1	266	0.243
"75-28-5"	"isobutane"	407.8	36.4	259	0.184
"75-29-6"	"2-chloropropane"	489	45.4	247	0.199
"75-30-9"	"2-iodopropane"	578	51.2	290	0.238
"75-31-0"	"isopropylamine"	471.85	45.4	221	0.276
"75-33-2"	"2-propanethiol"	517	47.5	254	0.214
"75-34-3"	"1,1-dichloroethane"	523	50.7	240	0.234
"75-35-4"	"1,1-dichloroethylene"	482	51.9	224	0.272
"75-36-5"	"acetyl chloride"	508	57	196	0.334
"75-37-6"	"1,1-difluoroethane"	386.44	45.2	179	0.275
"75-38-7"	"1,1-difluoroethylene"	302.8	44.6	154	0.136
"75-39-8"	"1-aminoethanol"	638	68.7	225	0.797
"75-43-4"	"dichlorofluoromethane"	451.58	51.84	196	0.205
"75-44-5"	"phosgene"	455	56.74	190.2	0.201
"75-45-6"	"chlorodifluoromethane"	369.3	49.71	166	0.219
"75-46-7"	"fluoroform"	299.01	48.16	132	0.264
"75-47-8"	"iodoform"	794.55	53.12	349.5	0.193
"75-50-3"	"trimethylamine"	433.25	40.73	254	0.209
"75-52-5"	"nitromethane"	588.15	63.13	173.4	0.348
"75-54-7"	"methyl dichlorosilane"	483	39.5	289	0.276
"75-55-8"	"propyleneimine"	529	54.2	208	0.257
"75-56-9"	"1,2-propylene oxide"	482.25	49.2	186	0.268
"75-61-6"	"dibromodifluoromethane"	478	40.7	249	0.108
"75-62-7"	"bromotrichloromethane"	606	49.7	284	0.192
"75-63-8"	"bromotrifluoromethane"	340.15	39.7	200	0.17
"75-64-9"	"tert-butylamine"	483.9	38.4	293	0.275
"75-65-0"	"tert-butanol"	506.21	39.73	275	0.612
"75-66-1"	"tert-butyl mercaptan"	530	40.6	307	0.191
"75-68-3"	"1-chloro-1,1-difluoroethane"	410.29	40.41	225	0.231
"75-69-4"	"trichlorofluoromethane"	471.2	44.08	248	0.189
"75-71-8"	"dichlorodifluoromethane"	384.95	41.25	217	0.18
"75-72-9"	"chlorotrifluoromethane"	302	38.7	180.3	0.172
"75-73-0"	"carbon tetrafluoride"	227.5	37.4	140	0.179
"75-75-2"	"methanesulfonic acid"		0	220	
"75-76-3"	"tetramethylsilane"	450.4	28.14	357	0.224
"75-77-4"	"chlorotrimethylsilane"	497.75	32	366	0.2701
"75-78-5"	"dichlorodimethylsilane"	520.35	34.9	358	0.268
"75-79-6"	"methyl trichlorosilane"	517	35.3	340	0.263
"75-83-2"	"2,2-dimethylbutane"	489	31	358	0.234
"75-84-3"	"2,2-dimethyl-1-propanol"	550	38.8	327	0.604
"75-85-4"	"tert-pentyl-alcohol"	543.7	37.1	327	0.479
"75-86-5"	"acetone cyanohydrin"	620	42.5	296	0.767
"75-87-6"	"trichloroacetaldehyde"	565	44.1	288	0.332
"75-88-7"	"2-chloro-1,1,1-trifluoroethane"	430	40.78	238	0.247
"75-91-2"	"t-butyl hydroperoxide"	576	43.4	290	0.668
"75-94-5"	"trichlorovinylsilane"	543.15	30.6	408	0.282
"75-97-8"	"3,3-dimethyl-2-butanone"	564	33.2	368	0.327
"75-98-9"	"2,2-dimethylpropanoic acid"	632	38.9	336	0.513
"7515-62-0"	"5-bromo-trans-2-pentene"	600.04	40.21	357.5	0.357
"7515-80-2"	"N-tert-butylisopropylamine"	565.35	29.19	459.3	0.409
"7516-82-7"	"methyldecylamine"	666.6	19.9	675	0.66
"7524-63-2"	"1,2,3,4-tetrahydro-2,6-dimethylnaphthalene"	737.62	27.73	548.5	0.424
"7525-62-4"	"m-ethylstyrene"	676.81	30.19	468.5	0.376
"753-89-9"	"1-chloro-2,2-dimethylpropane"	546.97	33.96	353.5	0.239
"7540-51-4"	"(-)-b-citronellol"	656.59	22.36	601.5	0.612
"7550-35-8"	"lithium bromide"	2578.42	212.62	302.5	0.583
"7550-45-0"	"titanium tetrachloride"	638	46.61	340	0.2837
"7553-56-2"	"iodine"	819.15	116.54	155	0.1115
"75579-88-3"	"5-methylheptanal"	614	25.65	474	0.534
"7564-63-8"	"o-ethylstyrene"	672.78	30.19	468.5	0.376
"757-88-0"	"1,1-dimethylpropyl formate"	570	32.1	384	0.351
"7581-97-7"	"2,3-dichlorobutane, dl and meso"	599	37.4	343	0.268
"7596-92-1"	"1-bromodotriacontane"	961.8	5.61	1889.5	
"76-01-7"	"pentachloroethane"	665	36.8	369	0.246
"76-02-8"	"trichloroacetyl chloride"	590	41	332	0.35
"76-03-9"	"trichloroacetic acid"	688	48.1	309	0.554
"76-05-1"	"trifluoroacetic acid"	491.25	32.58	204	0.524
"76-09-5"	"2,3-dimethyl-2,3-butanediol"	597.11	40.47	387.5	1.03
"76-11-9"	"1,1,1,2-tetrachloro-2,2-difluoroethane"	552	33.4	351	0.257
"76-12-0"	"1,1,2,2-tetrachloro-1,2-difluoroethane"	551	33.4	351	0.279
"76-13-1"	"1,1,2-trichloro-1,2,2-trifluoroethane"	487.25	34.1	325	0.252
"76-14-2"	"1,2-dichloro-1,1,2,2-tetrafluoroethane"	418.85	32.6	294	0.252
"76-15-3"	"chloropentafluoroethane"	353.15	31.57	252	0.251
"76-16-4"	"hexafluoroethane"	292.8	29.8	224	0.249
"76-19-7"	"octafluoropropane"	345.05	26.8	299	0.327
"76-22-2"	"camphor"	709	29.9	505	0.319
"76-35-7"	"2,2-dimethyl-1,3-butanediol"	630.45	39.91	392.5	1.105
"760-20-3"	"3-methyl-1-pentene"	495	32.9	343.3	0.264
"760-21-4"	"2-ethyl-1-butene"	511	33	343	0.252
"760-23-6"	"3,4-dichloro-1-butene"	589	38.5	330	0.3
"7601-90-3"	"perchloric acid"	631	38.6	168	0.0498
"7611-86-1"	"cis-1-chloro-1-butene"	521.07	39.71	288.5	0.252
"7611-87-2"	"trans-1-chloro-1-butene"	528.19	39.71	288.5	0.252
"7611-88-3"	"cis-1-chloro-2-methyl-1-butene"	553.1	35.52	345.5	0.271
"7611-89-4"	"trans-1-chloro-2-methyl-1-butene"	553.1	35.52	345.5	0.271
"7614-93-9"	"1,3-diphenyl-1-butene"	790.85	24.15	696.5	0.509
"7616-94-6"	"perchloryl fluoride"	368.4	53.7	161	0.1726
"762-50-5"	"1-chloro-2-fluoroethane"	511	44.92	215	0.251
"762-62-9"	"4,4-dimethyl-1-pentene"	520.28	29.89	397.5	0.253
"762-63-0"	"4,4-dimethyl-cis2-pentene"	534.97	30.8	388.5	0.244
"762-75-4"	"tert-butyl formate"	537	35.8	334	0.294
"763-29-1"	"2-methyl-1-pentene"	505	31.9	343	0.261
"763-30-4"	"2-methyl-1,4-pentadiene"	493.39	34.4	334.5	0.251
"763-32-6"	"3-methyl-3-buteN-1-ol"	573	45.5	258.4	
"763-69-9"	"ethyl-3-ethoxypropionate"	621	26.6	458	0.497
"763-89-3"	"4-methyl-3-penteN-1-ol"	587	39	303.8	
"763-93-9"	"3-hexeN-2-one"	595	39.6	342.8	
"7631-99-4"	"sodium nitrate"	1321	0	0	
"7632-51-1"	"vanadium tetrachloride"	697	60.3	268	0.1858
"7637-07-2"	"boron trifluoride"	260.9	49.9	115	0.4337
"764-13-6"	"2,5-dimethyl-2,4-hexadiene"	597	27.4	425	0.322
"764-35-2"	"2-hexyne"	549	35.3	331	0.221
"764-39-6"	"2-pentenal"	570	41	271.5	
"764-41-0"	"1,4-dichloro-2-butene"	640	37.98	332	0.302
"764-42-1"	"trans-2-butenedinitrile"	657	37.3	287	0.557
"764-47-6"	"propyl vinyl ether"	505.58	35.97	313.5	0.323
"764-84-1"	"1,1,1-trifluorododecane"	638.2	16.5	742	0.597
"764-93-2"	"1-decyne"	619.85	23.7	552	0.518
"764-96-5"	"cis-5-undecene"	637.84	20.23	637.8	0.504
"764-97-6"	"trans-5-undecene"	637.84	20.23	637.8	0.504
"7641-77-2"	"hexamethyldewarbenzene"	697.15	23.61	602	0.437
"7642-04-8"	"cis-2-octene"	572	25.9	461	0.389
"7642-09-3"	"cis-3-hexene"	509	31.7	351	0.279
"7642-10-6"	"cis-3-heptene"	545	28.4	421	0.295
"7642-15-1"	"cis-4-octene"	568	25.9	461	0.385
"76444-23-0"	"citronellyl propionate"	716	19	717.4	
"7646-78-8"	"stannic chloride"	591.9	37.5	351	0.14
"7646-79-9"	"cobalt chloride"	2154.97	177.7	302.5	0.53
"7646-85-7"	"zinc chloride"	1637.05	134.99	302.5	0.448
"7647-01-0"	"hydrogen chloride"	324.65	83.1	81	0.1315
"7647-14-5"	"sodium chloride"	3400	355	266	0.1894
"7647-15-6"	"sodium bromide"	4287	192.52	398	-0.7998
"7647-17-8"	"cesium chloride"	2562.13	211.27	302.5	0.581
"7647-18-9"	"antimony pentachloride"	662.54	39.42	382.86	0.129
"7647-19-0"	"phosphorus (V) fluoride"	296.31	37.23	173.38	
"765-03-7"	"1-dodecyne"	668.16	20.25	669.5	0.512
"765-04-8"	"1,11-undecanediol"	731.93	22.89	689.5	1.339
"765-05-9"	"decyl vinyl ether"	686	21	672.8	
"765-09-3"	"1-bromotridecane"	739.06	17.4	825.5	0.726
"765-10-6"	"1-tetradecyne"	689.9	16.6	772	0.665
"765-13-9"	"1-pentadecyne"	711.41	15.87	837.5	0.628
"765-14-0"	"dodecyl vinyl ether"	726	19	780.8	
"765-27-5"	"1-eicosyne"	769.79	11.19	1117.5	0.75
"765-38-8"	"2-methylpyrrolidine"	550	42	298	0.227
"765-47-9"	"1,2-dimethylcyclopentene"	579.44	34.32	353.5	0.245
"766-07-4"	"cyclohexyl peroxide"	685	42.1	342	0.751
"766-90-5"	"cis-1-propenylbenzene"	671	33.6	407	0.341
"766-92-7"	"[(methylthio)methyl]benzene"	725.28	38.3	429.5	0.374
"766-95-0"	"2,5-diethyl-1H-pyrrole"	670	37.5	390	
"7661-55-4"	"5-methylquinoline"	782.28	38.29	458.5	0.452
"7664-38-2"	"phosphoric acid"	1030	50.7	340	
"7664-39-3"	"hydrogen fluoride"	461.15	64.8	69	0.3822
"7664-41-7"	"ammonia"	405.65	112.8	72.47	0.2526
"7664-93-9"	"sulfuric acid"	924	64	177.7	0.494
"7667-51-8"	"N-nonacontane"	1197.73	1.91	5387	
"7667-55-2"	"1,cis-2,trans-3-trimethylcyclohexane"	626.3	26.49	470.5	0.28
"7667-58-5"	"1,cis-2,trans-4-trimethylcyclohexane"	621.87	26.49	470.5	0.28
"7667-59-6"	"1,trans-2,cis-4-trimethylcyclohexane"	617.44	26.49	470.5	0.28
"7667-60-9"	"1,trans-2,trans-4-trimethylcyclohexane"	611.86	26.49	470.5	0.28
"7667-76-7"	"N-henpentacontane"	1078.87	3.47	3058.7	
"7667-78-9"	"N-octapentacontane"	1109.34	3.19	3476.6	
"7667-79-0"	"N-nonapentacontane"	1113.53	3.15	3536.3	
"7667-80-3"	"N-hexacontane"	1116.67	3.11	3596	
"7667-81-4"	"N-henhexacontane"	1120.85	3.07	3655.7	
"7667-82-5"	"N-henheptacontane"	1153.18	2.67	4252.7	
"7667-83-6"	"N-doheptacontane"	1156.3	2.63	4312.4	
"7667-84-7"	"N-triheptacontane"	1159.41	2.59	4372.1	
"7667-85-8"	"N-tetraheptacontane"	1161.49	2.55	4431.8	
"7667-86-9"	"N-pentaheptacontane"	1164.61	2.51	4491.5	
"7667-87-0"	"N-hexaheptacontane"	1166.68	2.47	4551.2	
"7667-88-1"	"N-octacontane"	1177.05	2.31	4790	
"7667-89-2"	"N-henoctacontane"	1179.12	2.27	4849.7	
"7667-90-5"	"N-trioctacontane"	1183.26	2.19	4969.1	
"7667-91-6"	"N-tetraoctacontane"	1185.33	2.15	5028.8	
"7667-92-7"	"N-hexaoctacontane"	1189.47	2.07	5148.2	
"7667-93-8"	"N-heptaoctacontane"	1191.53	2.03	5207.9	
"7667-94-9"	"N-octaoctacontane"	1193.6	1.99	5267.6	
"7667-95-0"	"N-dononacontane"	1201.86	1.83	5506.4	
"7667-96-1"	"N-trinonacontane"	1203.92	1.79	5566.1	
"7667-97-2"	"N-pentanonacontane"	1207.01	1.71	5685.5	
"767-12-4"	"3,3-dimethylcyclohexanol"	645	35.9	448.2	
"767-54-4"	"trans-3,3,5-trimethylcyclohexanol"	655	33.9	478.8	
"767-59-9"	"1-methylindene"	703	34.6	436	0.335
"767-60-2"	"3-methyl-1H-indene"	693.5	34.6	434.5	0.332
"767-99-7"	"cis-(1-methyl-1-propenyl)benzene"	654	30.1	464	0.361
"7670-25-9"	"N-heptanonacontane"	1210.1	1.63	5804.9	
"7670-26-0"	"N-octanonacontane"	1212.16	1.59	5864.6	
"7670-27-1"	"N-nonanonacontane"	1213.19	1.55	5924.3	
"768-00-3"	"trans-(1-methyl-1-propenyl)benzene"	685	30.1	470	0.356
"768-49-0"	"(2-methyl-1-propenyl)benzene"	681.41	31.21	468.5	0.341
"768-52-5"	"N-isopropylaniline"	705.58	32.84	482	0.413
"768-56-9"	"3-butenylbenzene"	682.45	30.88	467.3	0.356
"7681-11-0"	"potassium iodide"	3610	97.3	660	-0.4198
"7681-49-4"	"sodium fluoride"	5530	531.96	185	-1.1147
"7681-65-4"	"copper iodide"	2620.77	216.11	302.5	0.588
"7681-82-5"	"sodium iodide"	3950	139	505	-0.575
"7688-21-3"	"cis-2-hexene"	513	31.6	359	0.272
"769-06-2"	"N,N,2,6-tetramethylaniline"	690	29.85	525.5	0.69
"769-25-5"	"2-vinyl-1,3,5-trimethylbenzene"	703	28	521.3	
"769-92-6"	"4-tert-butylaniline"	690	29.85	525.5	0.69
"7696-51-7"	"2-isopropylpyrrole"	650	40.5	350.3	
"7697-37-2"	"nitric acid"	520	68.9	145	0.7144
"77-47-4"	"hexachlorocyclopentadiene"	746	30.1	526	0.383