"CASRN"	"Chemical"	"Tc"	"Pc"	"Vc"	"omega"
"460-36-6"	"1,1,1,3-tetrafluoropropane"	457.1	35.99	264.5	0.306
"460-73-1"	"1,1,1,3,3-pentafluoropropane"	427.16	36.51	259.7	0.33
"4609-87-4"	"1-nitrodecane"	716.97	21.31	677.5	0.725
"4609-89-6"	"2-nitropentane"	611	31	391	0.462
"461-58-5"	"cyanoguanidine"	834	53.4	329	0.692
"4613-11-0"	"meso-2,3-diphenylbutane"	778.3	22	777	0.452
"4614-03-3"	"2-sec-butylnaphthalene"	818.49	25.18	627.5	0.508
"4616-73-3"	"eicosanenitrile"	813.13	10	1181.5	0.829
"462-06-6"	"fluorobenzene"	560.09	45.51	269	0.247
"462-18-0"	"7-tridecanone"	707.26	17.32	769.5	0.727
"462-39-5"	"1,3-difluoropropane"	480.87	39.26	239.5	0.292
"462-94-2"	"1,5-pentanediamine"	637.67	42.1	358	0.591
"462-95-3"	"diethoxymethane"	524	32.8	349	0.43
"4620-70-6"	"2-[tert-butylamino]ethanol"	681	34.4	436	0.97
"4621-04-9"	"4-(1-methylethyl)cyclohexanol"	655	33.9	478.8	
"4628-21-1"	"1-chloro-cis2-butene"	553.11	39.71	288.5	0.252
"463-11-6"	"1-fluorooctane"	580.5	23.5	498	0.479
"463-18-3"	"1-fluorononane"	602.9	21.5	553	0.518
"463-40-1"	"linolenic acid"	780	14.4	1070	1.186
"463-49-0"	"allene"	394	52.5	165	0.104
"463-51-4"	"ketene"	370	58.1	144	0.126
"463-58-1"	"carbonyl sulfide"	378.8	63.49	135.1	0.097
"463-72-9"	"carbamic chloride"	517	73.8	201	0.445
"463-82-1"	"neopentane"	433.8	31.96	307	0.196
"4630-06-2"	"DL-6-methyl-5-hepteN-2-ol"	615	31	387.5	
"464-06-2"	"2,2,3-trimethylbutane"	531.17	29.54	398	0.25
"464-07-3"	"3,3-dimethyl-2-butanol"	566.4	34.5	374	0.496
"4654-26-6"	"bis(2-ethylhexyl) terephthalate"	855	11.6	1440	1.09
"4655-34-9"	"isopropyl methacrylate"	592.33	28.3	428	0.432
"4669-01-6"	"pentadecylcyclopentane"	780	10.2	1096.5	0.833
"4683-94-7"	"2-methyl-trans-decahydronaphthalene"	701.48	26.38	532.5	0.331
"4701-36-4"	"(1-ethyl-1-propenyl)benzene"	703	28	521.3	
"4704-31-8"	"vinyl decanoate"	694	21.5	619.8	
"4706-81-4"	"2-tetradecanol"	731.4	17.3	823	0.694
"4706-89-2"	"1,3-dimethyl-4-isopropylbenzene"	674.93	25.9	537.5	0.411
"4706-90-5"	"1,3-dimethyl-5-isopropylbenzene"	668.35	25.9	537.5	0.411
"471-43-2"	"1,1-dichloro-2,2-difluoroethane"	515.98	41.36	271	0.112
"471-77-2"	"neoabietic acid"	812	16.7	998	0.86
"473-75-6"	"2-amino-3-methyl-1-butanol"	626.41	37.9	368	0.841
"473-91-6"	"1,2,3-trimethylcyclopentene"	602.71	31.92	410.5	0.315
"4730-22-7"	"6-methyl-2-heptanol"	601.18	28.35	490.5	0.773
"4737-41-1"	"1-chloro-2-ethylbutane"	587.51	30.09	414.5	0.343
"4740-00-5"	"3-methylthiacyclopentane"	646.2	43.06	302.5	0.229
"4747-07-3"	"1-methoxy-hexane"	558.21	28.29	428.5	0.307
"4747-21-1"	"methylisopropylamine"	487.6	2	290	0.589
"475-03-6"	"1,2,3,4-tetrahydro-1,1,6-trimethylnaphthalene"	749.21	25.13	604.5	0.468
"4753-80-4"	"thiacycloheptane"	640.07	43.74	391.5	0.291
"4773-83-5"	"1,2,3-trimethylindene"	726	27.7	529	0.441
"4784-77-4"	"1-bromo-2-butene"	568.74	45.55	301.8	0.301
"4786-20-3"	"2-butenenitrile"	573	38.8	267.8	0.364
"4789-40-6"	"2,5-di-tert-butylfuran"	670	26.7	558	
"479-45-8"	"N-methyl-N,2,4,6-tetranitroaniline"	828	26.1	665	1.278
"4798-44-1"	"1-hexeN-3-ol"	587	39	303.8	
"4798-46-3"	"5-methyl-1-hexeN-3-ol"	601	35	341	
"4798-60-1"	"2-methyl-4-hexeN-3-ol"	601	35	341	
"4798-61-2"	"2-octeN-4-ol"	615	31	387.5	
"4798-62-3"	"6-methyl-2-hepteN-4-ol"	615	31	387.5	
"4798-64-5"	"7-methyl-2-octeN-4-ol"	629	27	447.3	
"4806-58-0"	"1,cis-2,cis-3-trimethylcyclopropane"	520.06	34.24	336.5	0.234
"4806-59-1"	"1,cis-2,trans-3-trimethylcyclopropane"	510.4	34.24	336.5	0.234
"4806-61-5"	"ethylcyclobutane"	528.1	37.23	320.5	0.256
"4810-09-7"	"3-methyl-1-heptene"	557.26	26.68	458.5	0.357
"4815-57-0"	"1,4-dipropylbenzene"	697.15	23.61	602	0.437
"483-78-3"	"1,6-dimethyl-4-isopropylnaphthalene"	795.4	22.74	689.5	0.575
"4850-28-6"	"1,cis-2,trans-4-trimethylcyclopentane"	582.21	28.54	422.5	0.265
"4850-32-2"	"sec-butylcyclopentane"	626.59	27.88	474.5	0.33
"486-34-0"	"1,2,7-trimethylnaphthalene"	776.9	26.71	577.5	0.492
"4860-03-1"	"1-chlorohexadecane"	762.66	12.84	980.5	0.746
"4862-03-7"	"1-chloropentadecane"	750.73	13.77	924.5	0.722
"488-17-5"	"1,2-dihydroxy-3-methylbenzene"	776.37	61.32	187.5	0.565
"488-23-3"	"1,2,3,4-tetramethylbenzene"	693	31.1	475	0.417
"488-70-0"	"2,3,4,5-tetramethylphenol"	757.92	32.62	421.5	0.538
"488-71-1"	"2,3,4,6-tetramethylaniline"	690	29.85	525.5	0.69
"488-92-6"	"3-ethyl-4-methyl-1H-pyrrole"	650	40.5	350.3	
"4886-77-5"	"3-methyl-(1-thiaethyl)-benzene"	718.95	36.6	429.5	0.371
"4887-30-3"	"octyl hexanoate"	695	16.6	817.7	
"4894-61-5"	"1-chloro-trans-2-butene"	554.5	39.71	288.5	0.252
"4894-62-6"	"3-methyl-1,5-heptadiene"	586	34	369.1	
"490-65-3"	"1-methyl-7-isopropylnaphthalene"	773.88	24.8	627.5	0.507
"4900-30-5"	"1,8-nonadiene"	616	32.8	400.7	
"4905-79-7"	"1,1,1-trichlorooctane"	693.91	23.16	619.5	0.477
"491-18-9"	"4-ethyl-2,3-dimethyl-1H-pyrrole"	670	37.5	390	
"491-35-0"	"4-methylquinoline"	790.59	38.29	458.5	0.452
"4911-54-0"	"ethyl 4-methyl-4-pentenoate"	616	26	470.5	
"4911-70-0"	"2,3-dimethyl-2-pentanol"	571.87	31.88	429.5	0.662
"4913-13-7"	"3,5,N,N-tetramethylaniline"	690	29.85	525.5	0.69
"4914-89-0"	"3-methyl-cis3-hexene"	546.75	29.76	408.5	0.307
"4914-91-4"	"3,4-dimethyl-cis2-pentene"	542.11	30.02	402.5	0.278
"4914-92-5"	"3,4-dimethyl-trans-2-pentene"	545.47	30.02	402.5	0.278
"4920-99-4"	"1-ethyl-3-isopropylbenzene"	665.63	26.3	537.5	0.412
"4923-77-7"	"1-methyl-cis2-ethylcyclohexane"	632.03	27.41	471.5	0.305
"4923-78-8"	"1-methyl-trans-2-ethylcyclohexane"	625.55	27.41	471.5	0.305
"4926-76-5"	"1-methyl-trans-3-ethylcyclohexane"	624.52	27.41	471.5	0.305
"4926-78-7"	"1-methyl-cis4-ethylcyclohexane"	624.52	27.41	471.5	0.305
"4926-90-3"	"1-methyl-1-ethylcyclohexane"	633.38	29.8	470.5	0.292
"493-01-6"	"cis-decahydronaphthalene"	703.6	32	480	0.279
"493-02-7"	"trans-decahydronaphthalene"	687	32	480	0.299
"4938-52-7"	"1-hepteN-3-ol"	601	35	341	
"4946-13-8"	"p-ethylthiophenol"	724.15	38.77	429.5	0.374
"49542-74-7"	"2,4,8-trimethylnonane"	632.08	18.17	689.5	0.491
"49557-09-7"	"2,5,8-trimethylnonane"	633.44	18.17	689.5	0.491
"4957-14-6"	"4',4""-dimethyldiphenylmethane"	797.05	24.36	659.5	0.521
"49598-54-1"	"2,2-dimethyldodecane"	679.98	15.46	808.5	0.566
"496-11-7"	"indane"	684.9	39.5	381	0.309
"496-14-0"	"phthalan"	700	42.85	356.2	0.372
"496-73-1"	"1,3-dihydroxy-4-methylbenzene"	809.15	61.32	187.5	0.565
"496-78-6"	"2,4,5-trimethylphenol"	737.64	37.18	365.5	0.494
"49623-50-9"	"1,3-dibromo-2-methylbutane"	659.19	41.95	427.5	0.448
"497-03-0"	"trans-2-methyl-2-butenal"	570	41	271.5	
"497-06-3"	"3-butene-1,2-diol"	679.44	52	279	1.174
"497-39-2"	"2,4-di-tert-butyl-5-methylphenol"	738.5	20.9	757	0.793
"4974-27-0"	"2,6-octadiene"	586	34	369.1	
"498-02-2"	"1-(4-hydroxy-3-methoxyphenyl)ethanone"	786	36.5	467	0.786
"498-23-7"	"citraconic acid"	829	42.4	340	0.927
"498-66-8"	"2-norbornene"	583	39.3	337	0.159
"4981-99-1"	"3-methylhentriacontane"	920.46	5.43	1924.4	
"4984-01-4"	"3,7-dimethyl-1-octene"	616.98	21.85	581.3	0.457
"4984-22-9"	"(R)-(-)-1-methoxy-2-propanol"	569	42.4	297.3	0.759
"49852-35-9"	"6-methyl-2-hepteN-4-one"	635	31.6	451.8	
"49859-87-2"	"dimethylnonadecylamine"	791.64	9.79	1249.5	0.804
"499-75-2"	"2-methyl-5-propylphenol"	733.95	33.76	421.5	0.541
"50-00-0"	"formaldehyde"	408	65.86	105	0.282
"50-21-5"	"lactic acid"	675	59.6	251	1.022
"50-70-4"	"sorbitol"	868	46.4	483	2.213
"50-78-2"	"2-(acetyloxy)benzoic acid"	765	32.7	469	0.833
"50-81-7"	"ascorbic acid"	783	52.9	339	2.389
"50-99-7"	"glucose"	755	48.2	414	2.387
"500-00-5"	"4-methyl-1-(1-methylethyl)cyclohexene"	640	26	511	
"5008-69-5"	"4-methyl-2-thiapentane"	585	34	370	0.271
"5008-72-0"	"4-methyl-3-thiahexane"	601.01	31.96	419.5	0.351
"5008-73-1"	"2-methyl-3-thiahexane"	598.65	31.96	419.5	0.351
"5009-11-0"	"1-hexeN-4-yne"	525	40	284.3	
"501-65-5"	"diphenylacetylene"	832	29	611	0.384
"502-44-3"	"epsiloN-caprolactone"	771	46.3	352	0.442
"502-56-7"	"5-nonanone"	640	23.2	560	0.514
"502-59-0"	"6-methyl-N-isopentyl-2-heptanamine"	694.76	16.71	788.3	0.685
"502-73-8"	"16-hentriacontanone"	860	6	1540.3	
"5026-76-6"	"6-methyl-1-heptene"	558	26	453	0.356
"50273-84-2"	"5-bromo-cis2-pentene"	600.04	40.21	357.5	0.357
"503-17-3"	"dimethylacetylene"	473.2	48.7	221	0.239
"503-30-0"	"1,3-propylene oxide"	520	57.5	188	0.201
"503-46-8"	"1,5,5-trimethylcyclohexene"	620	28.6	451.8	
"503-60-6"	"1-chloro-3-methyl-2-butene"	583.57	35.52	345.5	0.271
"503-64-0"	"cis-2-butenoic acid"	647	47	270	0.572
"503-74-2"	"3-methylbutanoic acid"	629.09	36.88	311.6	0.682
"50341-35-0"	"2,2-dibromobutane"	636.75	47.89	372.5	0.369
"504-15-4"	"1,3-dihydroxy-5-methylbenzene"	834.47	61.32	187.5	0.565
"504-53-0"	"18-pentatriacontanone"	900	5	1638.9	
"504-57-4"	"10-nonadecanone"	766.51	11.27	1105.5	0.843
"504-60-9"	"1,3-pentadiene"	492.61	37.7	283.3	0.153
"504-61-0"	"trans-2-buteN-1-ol"	559	52.2	223.2	
"504-63-2"	"1,3-propanediol"	724	95	217	0.74
"504-64-3"	"carbon suboxide"	431.8	51.19	183.75	
"50422-80-5"	"5-methyl-cis3-heptene"	560.58	26.96	457.5	0.347
"50468-22-9"	"3-methyl-1,2-butanediol"	629.12	44.56	341.5	1.142
"505-22-6"	"1,3-dioxane"	590	51.5	239	0.289
"505-32-8"	"3,7,11,15-tetramethyl-1-hexadeceN-3-ol"	783	12.5	1079.5	
"505-48-6"	"octanedioic acid"	809	28.2	522	1.147
"505-57-7"	"2-hexenal"	590	37	310.1	
"505-92-0"	"4-dodecenoic acid"	816	20	723.2	
"5058-19-5"	"2-butylpyridine"	673	30	469.4	
"50586-18-0"	"cis-1-chloro-1-hexene"	583.61	31.6	400.5	0.341
"50586-19-1"	"trans-1-chloro-1-hexene"	583.61	31.6	400.5	0.341
"506-05-8"	"1-fluoroundecane"	641.6	18.1	663	0.588
"506-12-7"	"heptadecanoic acid"	793	14.3	969	1.028
"506-30-9"	"eicosanoic acid"	821	12.4	1130	1.087
"506-31-0"	"9-eicosenoic acid"	966	14	1194.7	
"506-33-2"	"trans-13-docosenoic acid"	996	13	1314	
"506-37-6"	"cis-15-tetracosenoic acid"	996	12	1409.9	
"506-42-3"	"trans-9-octadeceN-1-ol"	755	13.5	991.3	
"506-46-7"	"hexacosanoic acid"	894	8.7	1479.5	
"506-48-9"	"octacosanoic acid"	918	8.3	1574.3	
"506-50-3"	"triacontanoic acid"	942	7.9	1677.7	
"506-51-4"	"1-tetracosanol"	841.6	9.4	1435.7	
"506-52-5"	"1-hexacosanol"	851.6	8.9	1518.6	
"506-68-3"	"cyanogen bromide"	545.03	70.08	193.99	0.254
"506-77-4"	"cyanogen chloride"	449	59.9	163	0.32
"506-80-9"	"diselenide, carbon"	665.03	77.18	187.7	
"50623-57-9"	"butyl nonanoate"	674	17.4	810	0.728
"507-09-5"	"thioacetic-acid"	577.34	69.21	219.5	0.304
"507-16-4"	"thionyl bromide"	661.75	64.89	232.32	0.283
"507-19-7"	"2-bromo-2-methylpropane"	541.05	43.63	310.5	0.252
"507-20-0"	"2-chloro-2-methylpropane"	507	39	300	0.191
"507-25-5"	"carbon tetraiodide"	961.09	52.28	432.5	0.181
"507-36-8"	"2-bromo-2-methylbutane"	581.23	38.58	366.5	0.296
"507-45-9"	"2,3-dichloro-2-methylbutane"	633.42	32.84	396.5	0.262
"50715-02-1"	"triacontylbenzene"	965.65	5.3	1943.5	
"50876-31-8"	"trans-1,1,3,5-tetramethylcyclohexane"	667	25.7	534	0.274
"50876-32-9"	"cis-1,1,3,5-tetramethylcyclohexane"	667	25.7	534	0.274
"50876-33-0"	"1,1,3,3-tetramethylcyclopentane"	586.82	29.38	475.5	0.258
"509-14-8"	"tetranitromethane"	540	26.8	439	0.705
"50902-82-4"	"3-ethyl-3-methylhexanoic acid"	703	24.5	547	0.831
"51-80-9"	"N,N,N',N'-tetramethylmethanediamine"	637.67	42.1	358	0.591
"51065-65-7"	"6-methyl-trans-2-heptene"	567.85	26.96	457.5	0.347
"51079-52-8"	"4,6-dimethyl-2-heptanol"	625.72	25.87	540.5	0.782
"51079-79-9"	"4,6,6-trimethyl-2-heptanol"	622.25	23.77	591.5	0.757
"51115-02-7"	"3-methyl-1-isopropylcyclopentene"	626.53	28.72	466.5	0.359
"51115-64-1"	"2-methylbutyl butanoate"	620	23.3	500	0.728
"51116-73-5"	"1-bromo-3-methylpentane"	618.02	33.92	427.5	0.404
"5113-93-9"	"trans-3-methyl-6-isopropylcyclohexene, (3R)"	640	26	511	
"512-56-1"	"trimethyl phosphate"	729	83.7	277	0.489
"51200-80-7"	"4-methyl-3-ethyl-3-hexanol"	608.58	25.95	541.5	0.748
"51200-81-8"	"2-methyl-3-isopropyl-3-hexanol"	620.04	23.32	606.5	0.759
"51200-82-9"	"4-isopropyl-4-heptanol"	615.36	23.59	597.5	0.788
"51200-83-0"	"2,4-dimethyl-3-isopropyl-3-pentanol"	626.57	23.5	600.5	0.728
"51261-14-4"	"(<+->)-2-chlorooctane"	642.41	24.43	532.5	0.462
"51299-55-9"	"2,4,5-trimethylcyclohexanone"	690	29.5	474.6	
"513-35-9"	"2-methyl-2-butene"	470	34.2	292	0.287
"513-36-0"	"1-chloro-2-methylpropane"	528	39	300	0.242
"513-37-1"	"1-chloro-2-methyl-1-propene"	532.31	39.96	289.5	0.227
"513-38-2"	"1-iodo-2-methylpropane"	563.95	46.28	272.5	0.648
"513-42-8"	"2-methyl-2-propeN-1-ol"	559	52.2	223.2	
"513-44-0"	"isobutyl mercaptan"	559	40.6	307	0.253
"513-48-4"	"2-iodobutane"	563.37	46.28	272.5	0.648
"513-49-5"	"(S)-(+)-sec-butylamine"	503.5	39.45	299.9	0.331
"513-53-1"	"2-butanethiol"	554	40.6	307	0.251
"513-81-5"	"2,3-dimethyl-1,3-butadiene"	526	35.2	315	0.214
"513-85-9"	"2,3-butanediol"	630.99	50.32	289.9	1.127
"5131-66-8"	"1-butoxy-2-propanol"	618	29.4	460.6	
"5132-75-2"	"octyl heptanoate"	708	15.8	853.1	
"51333-70-1"	"2,7-nonadiene"	616	32.8	400.7	
"514-10-3"	"abietic acid"	832	16.8	998	1.129
"5145-64-2"	"1-propyl-1H-pyrrole"	650	40.5	350.3	
"5145-99-3"	"2-methyl-3-thiapentane"	585	34	370	0.223
"515-12-8"	"1-ethyl-1-methyl-2,4-diisopropylcyclohexane, [1R-(1alpha,2beta,4beta)]"	737.79	16.62	808.5	0.577
"51525-97-4"	"1,1,3,3-tetrabromopropane"	813.01	67.85	439.5	0.625
"5160-99-6"	"1-methyl-3-isobutylbenzene"	668.49	26.3	537.5	0.412
"5161-04-6"	"1-methyl-4-isobutylbenzene"	671.35	26.3	537.5	0.412
"5161-11-5"	"3,cis-4-dimethylthiacyclopentane"	607.56	36.6	357.5	0.247
"5161-12-6"	"3,trans-4-dimethylthiacyclopentane"	607.56	36.6	357.5	0.247
"5161-13-7"	"2,cis-5-dimethylthiacyclopentane"	639.17	36.6	357.5	0.247
"5161-14-8"	"2,trans-5-dimethylthiacyclopentane"	638.36	36.6	357.5	0.247
"5161-16-0"	"2-methylthiacyclohexane"	660.59	39.31	350.5	0.244
"5161-17-1"	"4-methylthiacyclohexane"	669.27	39.31	350.5	0.244
"5161-75-1"	"2,2-dimethylthiacyclopentane"	623.18	40.31	356.5	0.235
"5161-76-2"	"3,3-dimethylthiacyclopentane"	623.18	40.31	356.5	0.235
"5161-77-3"	"2,cis-3-dimethylthiacyclopentane"	607.56	36.6	357.5	0.247
"5161-78-4"	"2,trans-3-dimethylthiacyclopentane"	607.56	36.6	357.5	0.247
"5161-79-5"	"2,cis-4-dimethylthiacyclopentane"	607.56	36.6	357.5	0.247
"5161-80-8"	"2,trans-4-dimethylthiacyclopentane"	607.56	36.6	357.5	0.247
"5162-44-7"	"4-bromo-1-butene"	571.36	44.98	302.5	0.323
"5162-48-1"	"2,2,4-trimethyl-3-pentanol"	582.81	28.94	479.5	0.674
"5166-35-8"	"3-chloro-2-ethyl-1-propene"	561.72	35.43	340.5	0.252
"5166-53-0"	"5-methyl-3-hexeN-2-one"	615	35.6	391.3	
"517-22-6"	"3-ethyl-2,4-dimethyl-1H-pyrrole"	670	37.5	390	
"5171-84-6"	"3,3,4,4-tetramethylhexane"	646.7	25.74	506	0.311
"51750-65-3"	"2,2,4,4-tetramethylhexane"	610.2	22.49	535	0.344
"51751-87-2"	"trans-1-bromo-1-octene"	643.03	28.75	525.5	0.492
"51872-48-1"	"3-bromo-2-methyl-1-butene"	573.71	40.36	353.5	0.311
"51891-58-8"	"2,2-difluoro-3-methylbutane"	467.07	32.25	334.5	0.261
"519-73-3"	"triphenylmethane"	865	22	753	0.574
"51916-47-3"	"1,4-octanediol"	713.79	31.07	515.5	1.272
"51932-19-5"	"methyl-1-methylbutylamine"	560.25	31.81	400.5	0.432
"5194-50-3"	"cis-2,trans-4-hexadiene"	538	33.5	331	0.275
"5194-51-4"	"trans-2,trans-4-hexadiene"	535	33.5	331	0.282
"5195-37-9"	"1,2,3,4-tetrahydro-1,3-dimethylnaphthalene"	737.62	27.73	548.5	0.424
"5195-40-4"	"1,2,3,4-tetrahydro-1,2-dimethylnaphthalene"	737.62	27.73	548.5	0.424
"51952-42-2"	"5-bromo-2-pentene"	586.22	40.33	356.2	0.334
"52019-78-0"	"(S)-(+)-2-hexanol"	581.8	34.61	377.4	0.582
"5205-34-5"	"5-decanol"	621.25	23.16	608.5	0.883
"5209-18-7"	"1,3-diphenyl-1-propene"	796.49	26.6	640.5	0.465
"52112-25-1"	"2-pentadecyne"	729.7	16.03	837.5	0.616
"52125-53-8"	"ethyl ether of propylene glycol"	582	36.7	350.1	0.783
"52152-71-3"	"2-iodobutane, (±)"	572.4	44.29	290	0.54
"52152-72-4"	"2-iodopentane, (±)"	587.33	40.92	327.3	0.676
"5223-59-6"	"1,2-diphenylbutane"	778.3	22	777	0.452
"52254-38-3"	"2-methyl-1-tetradecene"	704.33	14.67	857.5	0.642
"52254-50-9"	"2-methyl-1-nonadecene"	768.75	10.47	1137.5	0.746
"52315-44-3"	"1-octylcyclopentene"	694.89	19.75	690.5	0.532
"52317-98-3"	"methyl-3-methylbutylamine"	552.62	31.81	400.5	0.432
"52356-93-1"	"cis-1-iodo-1-octene"	692.75	26.14	551.5	0.419
"52387-50-5"	"1-methyl-3-penteN-1-ol"	587	39	303.8	
"52390-72-4"	"2-heptanol, (±)"	587.2	31.51	434.1	0.709
"52497-07-1"	"1,3-dichloro-1-butene"	640	37.98	332	0.302
"5258-50-4"	"3-methylthiacyclohexane"	668.34	39.31	350.5	0.244
"526-73-8"	"1,2,3-trimethylbenzene"	664.5	34.54	414	0.367
"526-75-0"	"2,3-xylenol"	722.95	49	360	0.516
"526-85-2"	"2,3,4-trimethylphenol"	739.96	37.18	365.5	0.494
"52627-73-3"	"tert-decanoic acid"	713	22.5	600	0.877
"52644-81-2"	"1-iodohexacosane"	912.99	7.76	1510.5	
"52663-48-6"	"octadecyl propanoate"	789.9	8.9	1273	
"52670-32-3"	"2,3,5,6-tetramethylheptane"	623.65	19.89	627.5	0.421
"52670-33-4"	"2,3,3,4,5-pentamethylhexane"	640.29	20.09	622.5	0.362
"52670-34-5"	"2,3,6,7-tetramethyloctane"	642.6	18.29	683.5	0.462
"52670-35-6"	"2,3,3,5,6-pentamethylheptane"	644.85	18.47	678.5	0.404
"52670-36-7"	"2,3,3,4,4,5-hexamethylhexane"	672.82	18.64	673.5	0.347
"52688-75-2"	"3-fluorohexane"	523.73	29.83	383.5	0.342
"52688-89-8"	"1,1,2,2-tetramethylcyclopentane"	609.38	29.38	475.5	0.258
"527-35-5"	"2,3,5,6-tetramethylphenol"	740.86	32.62	421.5	0.538
"527-53-7"	"1,2,3,5-tetramethylbenzene"	679	29.7	482	0.424
"527-54-8"	"3,4,5-trimethylphenol"	761.43	37.18	365.5	0.494
"527-60-6"	"2,4,6-trimethylphenol"	716.46	37.18	365.5	0.494
"527-84-4"	"o-cymene"	657	29	490	0.366
"52708-03-9"	"4-nonanol, (S)"	614.43	25.85	543.1	0.768
"52713-81-2"	"4-methyl-1-hexyne"	551.35	33.26	383.5	0.27
"5272-02-6"	"3-chloro-3-methylheptane"	642.41	24.43	532.5	0.462
"5277-11-2"	"dimethylheptylamine"	630.7	23.2	565	0.404
"52783-44-5"	"heptadecanol (mixed primary isomers)"	767.2	14.1	974	0.798
"528-29-0"	"o-dinitrobenzene"	831	38.5	434	0.669
"528-44-9"	"1,2,4-benzenetricarboxylic acid"	860	35.1	499	1.491
"52812-57-4"	"cis-1-iodo-2-methyl-1-butene"	628.8	36.16	384.5	0.261
"5284-22-0"	"o-heptylphenol"	763.83	23.38	690.8	0.626
"52841-28-8"	"methylethyl-tert-butylamine"	563.23	29.76	454.5	0.344
"52896-87-4"	"4-isopropylheptane"	607.6	22.29	537	0.416
"52896-88-5"	"4-ethyl-2-methylheptane"	601.8	21.89	545	0.424
"52896-89-6"	"4-ethyl-3-methylheptane"	614.3	22.8	530	0.41
"52896-90-9"	"3-ethyl-5-methylheptane"	606.6	22.29	541	0.416
"52896-91-0"	"3-ethyl-4-methylheptane"	615.5	22.8	533	0.409
"52896-92-1"	"2,2,3-trimethylheptane"	611.7	22.7	546	0.378
"52896-93-2"	"2,3,3-trimethylheptane"	617.5	23.2	538	0.371
"52896-95-4"	"2,3,4-trimethylheptane"	613.7	22.9	538	0.391
"52896-99-8"	"4-ethyl-2,2-dimethylhexane"	594.6	22.19	539	0.384
"52897-00-4"	"3-ethyl-2,3-dimethylhexane"	626.8	24.22	516	0.359
"52897-01-5"	"4-ethyl-2,3-dimethylhexane"	617.3	23.41	524	0.384
"52897-03-7"	"4-ethyl-2,4-dimethylhexane"	620.9	24.71	524	0.383
"52897-04-8"	"3-ethyl-2,5-dimethylhexane"	603.5	22.39	537	0.397
"52897-05-9"	"4-ethyl-3,3-dimethylhexane"	625.7	24.22	513	0.358
"52897-06-0"	"3-ethyl-3,4-dimethylhexane"	624.5	24.22	511	0.359
"52897-08-2"	"2,2,3,4-tetramethylhexane"	620.4	23.71	525	0.345
"52897-09-3"	"2,2,3,5-tetramethylhexane"	601.3	22.7	540	0.357
"52897-10-6"	"2,3,3,4-tetramethylhexane"	633.1	24.82	514	0.334
"52897-11-7"	"2,3,3,5-tetramethylhexane"	610.1	23.2	531	0.351
"52897-12-8"	"2,3,4,4-tetramethylhexane"	626.6	24.22	518	0.339
"52897-15-1"	"2,3,4,5-tetramethylhexane"	613.2	23.41	530	0.365
"52897-16-2"	"3,3-diethyl-2-methylpentane"	639.9	25.33	501	0.346
"52897-17-3"	"3-ethyl-2,2,3-trimethylpentane"	646	25.74	503	0.311
"52897-18-4"	"3-ethyl-2,2,4-trimethylpentane"	615.3	23.71	518	0.346
"52897-19-5"	"3-ethyl-2,3,4-trimethylpentane"	642.3	25.43	506	0.329
"529-20-4"	"2-methylbenzaldehyde"	694	36.7	386	0.435
"529-21-5"	"3-ethyl-4-methylpyridine"	653	33.3	417	0.376
"530-48-3"	"1,1-diphenylethene"	791.64	29.12	585.5	0.431
"53043-14-4"	"6-n-amyl-m-cresol"	755.67	27.47	598.7	0.59
"53045-71-9"	"3-bromo-1-pentene"	580.26	40.11	352.5	0.337
"5309-52-4"	"2-ethyl-2-hexenoic acid"	736	27	494.4	
"53119-51-0"	"2-methyl-3-ethylthiophene"	645.99	37.13	387.5	0.342
"53120-74-4"	"3,3-dimethyl-1,5-pentanediol"	644.63	35.14	454.5	1.175
"53121-23-6"	"1-iodo-cis2-butene"	630.09	40.47	327.5	0.242
"53161-72-1"	"1,2-diiodobutane"	726.41	37.27	429.5	0.281
"53172-84-2"	"(1-methyl-1-butenyl)benzene"	703	28	521.3	
"53178-20-4"	"2-chlorobutane"	522.7	38.45	300.6	0.253
"53184-67-1"	"nonyl propanoate"	693.1	16.3	751	0.716