"CASRN"	"Chemical"	"Tc"	"Pc"	"Vc"	"omega"
"13632-95-6"	"1-methyl-2,6-diethyl benzene"	683.96	25.69	543.5	0.441
"13637-63-3"	"chlorine pentafluoride"	416	52.7	233	0.316
"13637-65-5"	"germane, chloro"	478.44	61.75	168.77	
"13643-05-5"	"4-methyl-1,2-pentadiene"	528.04	35.77	341.5	0.237
"136705-66-3"	"(3S,6S)-3,6-octanediol"	692.04	31	517	1.28
"13678-54-1"	"2-methyl-4-ethyl thiophene"	655	37.13	387.5	0.342
"13693-09-9"	"xenon hexafluoride"	534.62	54.14	215.11	
"137-06-4"	"o-methylthiophenol"	714.96	43.86	373.5	0.329
"137-17-7"	"2,4,5-trimethylaniline"	705.58	32.84	482	0.413
"137-32-6"	"2-methyl-1-butanol"	575.4	39.4	327	0.574
"13701-67-2"	"diborane, tetrachloro"	507.85	32.94	373	
"13709-31-4"	"vanadyl trifluoride"	1163.52	0	0	
"13709-35-8"	"difluorodisulfane"	477.01	62.06	167.42	
"13709-36-9"	"xenon difluoride"	631	93.2	148	
"13709-52-9"	"hafnium fluoride"	1578.98	232.31	148.05	
"13709-61-0"	"xenon tetrafluoride"	612	70.4	188	
"13714-85-7"	"4-methyl-trans-3-heptene"	574.35	26.87	464.5	0.351
"13721-54-5"	"1-hexeN-3-yne"	525	40	284.3	
"13732-80-4"	"1-methyl-3,4-diethylbenzene"	676.58	25.69	543.5	0.441
"13760-02-6"	"silane, diiodo"	660	66.88	232	0.389
"13762-26-0"	"zirconium dichloride"	2072.62	245.16	184.16	
"13764-18-6"	"1,4,6,7-tetramethylnaphthalene"	810.54	23.89	633.5	0.535
"13768-38-2"	"osmium (VI) fluoride"	581.16	0	0	
"13768-94-0"	"silane, dibromo"	550	53	246	0.227
"13769-36-3"	"germane, dibromo"	563.33	57.28	214.24	
"13776-62-0"	"trans-difluorodiazine"	260	55.7	105.23	
"13777-22-5"	"hafnium (IV) bromide"	746	56.31	415	
"13777-23-6"	"hafnium (IV) iodide"	916	49.92	528	
"13777-25-8"	"zirconium bromide"	805	84.63	424	0.31
"13780-57-9"	"sulfur chloride pentafluoride"	390.9	39.6	217.07	
"138-86-3"	"limonene"	660	27.5	524	0.313
"13811-01-3"	"2-methyl-5-isopropyl-1,3-cyclohexadiene, (±)"	647	27.8	505.3	0.341
"13812-43-6"	"cis-difluorodiazine"	272	70.9	105.23	
"13814-76-1"	"rhenium (VI) oxytetrachloride"	781	0	362	
"13818-89-8"	"digermane"	491.01	46.67	239.68	0.165
"13819-84-6"	"molybdenum (V) fluoride"	772.5	84.67	198.74	
"13824-36-7"	"silane, difluoro"	318.21	47.59	152.31	0.139
"13824-74-3"	"phosphorous difluoride"	417	40.94	221.89	
"13830-68-7"	"disilane, hexafluoro"	411.33	30.16	310.64	0.022
"13831-30-6"	"(acetyloxy)acetic acid"	764	43.2	311	0.71
"13847-65-9"	"trifluoramine oxide"	303	64.3	147	
"13939-06-5"	"molybdenum hexacarbonyl"	1308.72	54.43	523.74	
"13940-94-8"	"a-a-p-trichlorotoluene"	737	33.4	447	0.26
"13952-84-6"	"sec-butylamine"	514.3	40	310	0.282
"13965-73-6"	"diborane, tetrafluoro"	364.54	42.25	208.77	
"13979-28-7"	"ethyl 2,3-dimethyl-2-butenoate"	616	26	470.5	
"13986-26-0"	"zirconium iodide"	960	94.57	530	0.343
"13991-37-2"	"trans-2-pentenoic acid"	676	40.57	321.5	0.415
"140-10-3"	"trans-cinnamic acid"	797	35.4	446	0.715
"140-11-4"	"benzyl acetate"	699	31.8	449	0.473
"140-29-4"	"benzeneacetonitrile"	732	34.6	391	0.472
"140-31-8"	"N-aminoethyl piperazine"	708	38.5	407	0.557
"140-66-9"	"p-tert-octylphenol"	765	22.8	704	0.633
"140-80-7"	"N1,N1-diethyl-1,4-pentanediamine"	741	28.5	597.4	
"140-88-5"	"ethyl acrylate"	553	36.8	323	0.378
"14010-23-2"	"ethyl heptadecanoate"	759	12.8	1041.3	
"14021-92-2"	"2,9-decanediol"	716.12	25.3	629	1.315
"14049-36-6"	"silane, chlorotrifluoro"	307.7	34.6	213.61	0.053
"14069-89-7"	"sec-butyl isocyanide"	565.89	34	335.5	0.397
"14072-86-7"	"4,4-dimethylcyclohexene"	597.08	34.6	400.5	0.247
"14073-97-3"	"trans-5-methyl-2-isopropylcyclohexanone, (2S)"	710	27.5	519.5	
"14092-00-3"	"2-methyl-(1-thiaethyl)-benzene"	718.95	36.6	429.5	0.371
"14092-20-7"	"2-hexeN-4-yne"	525	40	284.3	
"14096-82-3"	"cobalt nitrosyl tricarbonyl"	567.68	47.43	298.56	0.178
"141-05-9"	"diethyl maleate"	680	26.1	508	0.666
"141-06-0"	"propyl pentanoate"	602	26.1	494	0.395
"141-16-2"	"citronellyl butyrate"	738	18	773.8	
"141-25-3"	"2,6-dimethyl-1-octeN-8-ol"	643	23	527.6	
"141-32-2"	"butyl acrylate"	598	29.1	428	0.482
"141-43-5"	"monoethanolamine"	678.2	71.24	225	0.447
"141-59-3"	"tert-octyl mercaptan"	627	25.9	529	0.3
"141-62-8"	"decamethyltetrasiloxane"	599.4	12.27	1157	0.673
"141-63-9"	"dodecamethylpentasiloxane"	628.4	9.45	1509	0.726
"141-70-8"	"4,4-dimethyl-2-neopentyl-1-pentene"	656.77	18.72	694.8	0.548
"141-78-6"	"ethyl acetate"	523.3	38.8	286	0.366
"141-79-7"	"mesityl oxide"	600	34.1	355	0.327
"141-82-2"	"malonic acid"	805	56.4	258	0.942
"141-93-5"	"m-diethylbenzene"	663	28.8	488	0.354
"141-97-9"	"ethylacetoacetate"	643	32.7	391	0.561
"14108-88-4"	"1,2,3,4-tetrahydro-5,8-dimethylnaphthalene"	737.62	27.73	548.5	0.424
"14130-05-3"	"nonadecylamine"	786.3	10.2	1115	0.937
"14130-06-4"	"docosylamine"	834.97	9.33	1296.5	0.821
"14130-07-5"	"tricosylamine"	846.99	8.81	1352.5	0.791
"14130-08-6"	"tetracosylamine"	859.72	8.33	1408.5	0.753
"14130-09-7"	"pentacosylamine"	871.97	7.89	1464.5	0.708
"14130-10-0"	"hexacosylamine"	884.99	7.48	1520.5	
"14130-11-1"	"heptacosylamine"	898.82	7.1	1576.5	
"14130-12-2"	"octacosylamine"	912.27	6.75	1632.5	
"14130-15-5"	"heneicosylamine"	822.4	9.91	1240.5	0.844
"14167-59-0"	"tetratriacontane"	950.88	4.98	2043.8	
"14188-40-0"	"germane, chlorotrifluoro"	388.45	42	201.45	
"14188-79-5"	"2-decylnaphthalene"	843.81	15.06	969.5	0.762
"14189-13-0"	"2-ethyl-1,5-pentanediol"	627.98	34.68	459.5	1.245
"142-25-6"	"N,N,N'-trimethylethylenediamine"	637.67	42.1	358	0.591
"142-28-9"	"1,3-dichloropropane"	603	41.5	291	0.292
"142-29-0"	"cyclopentene"	507	47.9	240	0.195
"142-60-9"	"octyl propanoate"	677.2	17.7	693	0.621
"142-62-1"	"hexanoic acid"	660.2	33.8	413	0.73
"142-82-5"	"heptane"	540.2	27.4	428	0.35
"142-84-7"	"di-propylamine"	550	31.4	402	0.45
"142-90-5"	"lauryl methacrylate"	782	16	906.4	
"142-91-6"	"isopropyl palmitate"	759	12.8	1036.4	
"142-92-7"	"hexyl acetate"	618	25.4	494	0.54
"142-96-1"	"dibutyl ether"	584.1	24.6	487	0.448
"14250-79-4"	"2,2-dimethyl-1-heptanol"	623	25.74	547.5	0.78
"14252-42-7"	"1,1-bis(ethylthio)ethane"	673	27.5	479.5	0.37
"14255-23-3"	"2,4-dimethyl-2-hexene"	562.1	27.1	458.5	0.322
"14255-24-4"	"4-methyl-cis3-heptene"	574.35	26.87	464.5	0.351
"14255-44-8"	"2-nitrohexane"	639	31.78	447.5	0.523
"14272-54-9"	"3-ethyl-3-penteN-1-yne"	545	36	326.7	
"14287-61-7"	"2,3-dimethylbutanoic acid"	661	33.8	389	0.652
"14290-92-7"	"2,2-dimethyl-3-thiapentane"	588	31.3	412	0.286
"143-07-7"	"dodecanoic acid"	743	19.4	705	0.88
"143-08-8"	"1-nonanol"	670.7	25.28	572	0.6
"143-10-2"	"1-decanethiol"	696	21.3	624	0.587
"143-13-5"	"nonyl acetate"	661	19.9	653	0.716
"143-15-7"	"1-bromododecane"	726.55	18.89	769.5	0.69
"143-16-8"	"dihexylamine"	678.2	18.7	732	0.69
"143-22-6"	"2-[2-(2-butoxyethoxy)ethoxy]ethanol"	695	21.1	684	1.138
"143-24-8"	"tetraethylene glycol dimethyl ether"	705	19.4	674	0.965
"143-27-1"	"hexadecylamine"	757.5	12.9	950	0.826
"143-28-2"	"cis-9-octadeceN-1-ol"	755	13.5	991.3	
"143-33-9"	"sodium cyanide"	2900	237.6	304.46	0.589
"14303-70-9"	"propyl tetradecanoate"	733	14.2	927.7	
"14304-30-4"	"1-bromo-2-decene"	683.71	23.63	637.5	0.579
"14310-20-4"	"4-methyl-1,2-diphenylethane"	781.25	24.73	659.5	0.522
"14335-40-1"	"phosphorus (III) chloride difluoride"	362.4	45.2	172.9	
"14376-79-5"	"3,3,5,5-tetramethylcyclohexanone"	710	27.5	519.5	
"144-19-4"	"2,2,4-trimethyl-1,3-pentanediol"	680	29.9	503	0.841
"144-62-7"	"oxalic acid"	804	70.2	205	0.918
"14402-50-7"	"2-dodecanethiol"	720	18	747	0.593
"14411-75-7"	"1,3-dimethyl-2-isopropylbenzene"	674.78	25.9	537.5	0.411
"14424-33-0"	"1-nitro-2-methylpentane"	634.51	31.78	447.5	0.523
"14436-32-9"	"9-decenoic acid"	776	23	603.6	
"1445-23-4"	"2-tert-butyl-4,5-dimethylphenol"	755.67	27.47	598.7	0.59
"1445-79-0"	"trimethylgallium"	510	44	211	0.208
"14459-59-7"	"molybdenum (VI) oxytetrafluoride"	712.86	75.94	204.47	
"1446-61-3"	"dehydroabietylamine"	863	17	1020	0.742
"14464-46-1"	"silicon dioxide (cristobalite)"	5021.49	788.13	138.79	
"1447-26-3"	"5-methyl-4-hepteN-3-one"	635	31.6	451.8	
"14476-30-3"	"1,2,2-tribromopropane"	709.19	61.04	378.5	0.451
"14476-37-0"	"4-undecanone"	678.01	20.46	657.5	0.653
"1449-65-6"	"germane, methyl"	392.94	48.68	175.84	
"14490-79-0"	"trans-15-tetracosenoic acid"	996	12	1409.9	
"14521-18-7"	"ruthenium (V) fluoride"	977.44	80.6	302.5	0.296
"1453-24-3"	"1-ethylcyclohexene"	617.68	32.84	402.5	0.285
"14531-16-9"	"5-methyl-5-ethylnonane"	641.56	18.09	696.5	0.489
"1454-84-8"	"1-nonadecanol"	799	13.8	1070	0.908
"1454-85-9"	"1-heptadecanol"	780	15	960	0.849
"14548-31-3"	"1-hexeN-5-yne"	525	40	284.3	
"1455-20-5"	"2-butylthiophene"	665	32.5	433.2	
"1455-21-6"	"1-nonanethiol"	681	23.1	571	0.531
"14558-12-4"	"1,3,5,8-tetramethylnaphthalene"	810.54	23.89	633.5	0.535
"14558-14-6"	"1,3,6,8-tetramethylnaphthalene"	807.6	24.5	631.5	0.524
"1458-98-6"	"3-bromo-2-methyl-1-propene"	569.83	45.29	303.5	0.297
"1458-99-7"	"4-chloro-2-pentene"	561.69	35.41	343.2	0.275
"1459-09-2"	"1-phenylhexadecane"	818	12.7	1140	0.9
"1459-10-5"	"1-phenyltetradecane"	800	14	1030	0.813
"1459-11-6"	"1,2,4-tri-tert-butylbenzene"	754.52	14.81	967.8	0.742
"1459-93-4"	"dimethyl isophthalate"	719	27.9	539	0.655
"14596-92-0"	"1,cis-3-hexadiene"	526.7	34.6	332.5	0.266
"1460-02-2"	"1,3,5-tri-tert-butylbenzene"	754.52	14.81	967.8	0.742
"1460-98-6"	"1-methyl-2,4-diisopropylbenzene"	714	21.8	648	0.529
"14602-62-1"	"1,1,2-tribromopropane"	718.16	60.75	377.5	0.486
"14609-79-1"	"2,2,4,4-tetramethyl-3-pentanol"	602.64	26.46	530.5	0.651
"14610-37-8"	"methylisobutylamine"	515.2	34.9	345	0.403
"1462-10-8"	"4-methyl-1,4-pentanediol"	652.26	39.51	398.5	1.14
"1462-11-9"	"5-methyl-1,5-hexanediol"	644.63	35.14	454.5	1.175
"1462-84-6"	"2,3,6-trimethylpyridine"	653	33.3	417	0.376
"1463-17-8"	"2,8-dimethylquinoline"	751.67	33.53	514.5	0.497
"14642-66-1"	"3-diethylaminopropylamine"	689	34.5	465.4	
"146502-80-9"	"(1R)-(-)-neomenthyl acetate"	694	21.5	619.8	
"14676-29-0"	"3-ethyl-2-methylheptane"	610.9	22.29	544	0.415
"14686-13-6"	"trans-2-heptene"	543	28.5	406	0.337
"14686-14-7"	"trans-3-heptene"	540	28.5	406	0.334
"14691-44-2"	"trigermane"	616.37	47.05	298.44	0.18
"14693-81-3"	"tantalum (V) iodide"	1318.8	0	0	
"1471-03-0"	"3-propoxy-1-propene"	536	31.2	364	0.38
"14720-74-2"	"2,2,4-trimethylheptane"	594.5	21.68	552	0.389
"14721-66-5"	"3,7,11,15-tetramethylhexadecanoic acid"	822	10.76	1179.5	0.935
"14722-40-8"	"1,15-pentadecanediol"	788.66	16.34	913.5	1.274
"14739-73-2"	"2,2,3,5,5-pentamethylhexane"	623.34	20.15	623.5	0.333
"14752-75-1"	"heptadecylbenzene"	826	12.1	1200	0.92
"14753-05-0"	"1-chloro-2-methylpentane"	578.68	30.09	414.5	0.343
"1476-11-5"	"1,4-dichloro-cis2-butene"	640	37.8	343	0.33
"14762-55-1"	"helium-3"	3.31	1.17	72.5	-0.4715
"14765-30-1"	"2-(1-methylpropyl)cyclohexanone"	710	27.5	519.5	
"14779-92-1"	"8-methyl-2-nonanol"	640.97	23.34	602.5	0.852
"148-24-3"	"8-hydroxyquinoline"	788	43.6	414	0.522
"1480-63-3"	"1-fluorononadecane"	747.3	10	1103	0.773
"14808-60-7"	"silicon dioxide (α quartz)"	3780	31.6	163	0.719
"1483-60-9"	"2,4-dimethyl-1-sec-butylbenzene"	697.15	23.61	602	0.437
"1484-87-3"	"3,3,5-trimethyl-1-hexanol"	627.43	25.95	541.5	0.748
"14850-22-7"	"cis-3-octene"	569	25.9	461	0.38
"14850-23-8"	"trans-4-octene"	573	25.8	480	0.339
"14852-31-4"	"2-hexadecanol"	754.2	14.9	933	0.764
"1489-47-0"	"4-methyl-1-nonanol"	638.09	23.16	608.5	0.883
"1489-56-1"	"1-methyl-1,3-cyclohexadiene"	545	36	326.7	
"14890-41-6"	"vanadium (II) bromide"	1730.09	0	0	
"14898-79-4"	"(R)-(-)-2-butanol"	538.22	42.19	272.4	0.593
"149-30-4"	"2(3H)-benzothiazolethione"	749	40	406	0.332
"149-31-5"	"2-methyl-1,3-pentanediol"	648.13	39.36	397.5	1.179
"149-57-5"	"2-ethylhexanoic acid"	673.2	27.8	528	0.822
"149-74-6"	"dichloromethylphenylsilane"	689	28.7	508	0.402
"14919-01-8"	"trans-3-octene"	574	25.8	480	0.344
"14920-89-9"	"2,3-dimethylfuran"	559.41	41.73	306.5	0.332
"14938-35-3"	"4-pentylphenol"	751	29.8	546	0.569
"1495-50-7"	"cyanogen fluoride"	368.51	79	106.26	0.303
"14959-86-5"	"cis-7-dodecenyl acetate"	738	18	773.8	
"14965-52-7"	"silane, trichlorofluoro"	438.6	35.8	281.72	0.093
"14977-61-8"	"chromium oxychloride"	626.33	59.99	237.81	0.256
"14979-39-6"	"4-methyl-3-heptanol"	578.89	28.35	490.5	0.773
"14984-81-7"	"selenium dioxydifluoride"	406.72	53.38	165.98	
"14986-21-1"	"disiloxane, hexachloro"	655.58	27.9	535.21	0.022
"150-76-5"	"p-methoxyphenol"	761	49.7	342	0.536
"150-84-5"	"citronellyl acetate"	694	21.5	619.8	
"1501-60-6"	"2-methyl-1,cis-3-pentadiene"	535.2	34.81	333.5	0.241
"15013-37-3"	"4-methyl-2-thiahexane"	610.4	31.96	419.5	0.351
"150285-07-7"	"tert-amyl-tert-octylamine"	694.76	16.71	788.3	0.685
"151-19-9"	"3,6-dimethyl-3-octanol"	618.02	23.59	597.5	0.788
"151-56-4"	"ethyleneimine"	537	68.5	173	0.201
"151-67-7"	"halothane"	496	39.2	296	0.275
"1511-62-2"	"bromodifluoromethane"	411.98	51.32	167	0.205
"1511-82-6"	"1,1,1-trifluorooctadecane"	722.3	11.2	1072	0.668
"15145-69-4"	"3-chlorobenzal chloride"	737	33.4	447	0.26
"1517-66-4"	"(S)-3-methyl-2-butanol"	562.34	38.9	326.9	0.577
"15179-32-5"	"sulfur fluoride hypofluorite"	358.69	38.07	205.26	
"1518-72-5"	"di-isobutyl disulfide"	704.16	26.24	591.5	0.529
"1518-75-8"	"3-propylthiophene"	652.99	37.82	387.5	0.342
"15181-11-0"	"3,5-di-tert-butyltoluene"	741	18.95	790	0.638
"1520-42-9"	"1,1',1''-(1-ethanyl-2-ylidene)trisbenzene"	840	20.4	808	0.612
"1520-46-3"	"1,3-diphenyl-2-methylpropane"	778.3	22	777	0.452
"15220-85-6"	"2-methyl-1-propene, tetramer"	720.46	14.22	923.3	0.702
"15230-48-5"	"germane, dichloro"	535.61	54.3	214.85	
"15232-76-5"	"3-octyne"	600.66	29.99	445.5	0.324
"15268-49-2"	"2-methyl-1-propoxypropane"	558.21	28.29	428.5	0.307
"1530-03-6"	"1,1-diphenylpropane"	774.3	23.9	722	0.508
"1530-04-7"	"1,1-diphenylhexane"	794.4	19	892	0.625
"1530-05-8"	"1,1-diphenylheptane"	802.7	17.8	954	0.662
"1530-06-9"	"1,1-diphenyloctane"	810	16.7	1014	0.698
"1530-07-0"	"1,1-diphenyldecane"	822	14.9	1146	0.695
"1530-08-1"	"1,1-diphenylundecane"	827.9	14.1	1210	0.798
"1530-11-6"	"1,1-diphenyl-1-pentene"	797.63	22.02	752.5	0.552
"1530-19-4"	"1,1-diphenyl-1-hexene"	803.6	20.16	808.5	0.593
"1530-20-7"	"1,1-diphenyl-1-heptene"	817.04	18.53	864.5	0.632
"1530-21-8"	"1,1-diphenyl-1-octene"	828.02	17.09	920.5	0.669
"1530-26-3"	"1,1-diphenyl-1-nonene"	835.6	15.81	976.5	0.703
"1530-27-4"	"1,1-diphenyl-1-decene"	843.78	14.67	1032.5	0.733
"1530-28-5"	"1,1-diphenyl-1-undecene"	850.03	13.65	1088.5	0.759
"1530-29-6"	"1,1-diphenyl-1-dodecene"	856.93	12.73	1144.5	0.78
"15306-27-1"	"1-heptacosene"	849.93	7.04	1528.5	
"15331-16-5"	"1,1,2-tribromo-2-methylpropane"	758.11	53.44	428.5	0.462
"1534-26-5"	"3-tridecanone"	707.26	17.32	769.5	0.727
"1534-27-6"	"3-dodecanone"	687.46	18.79	713.5	0.691
"15340-96-2"	"3,7-dimethyl-2-octanol"	641.33	23.52	596.5	0.822
"1536-21-6"	"1-fluorotridecane"	674.2	15.4	773	0.646
"1541-23-7"	"1,5-heptadiene"	556	34.5	347.8	
"15430-98-5"	"8-pentadecene"	706.17	15.18	866.3	0.663
"15448-47-2"	"(R)-(+)-propylene oxide"	501.13	53.37	187	0.236
"1545-17-1"	"1-fluoroheptadecane"	726.2	11.5	993	0.742
"15466-93-0"	"trans-1,3-dimethylcyclohexanol"	645	35.9	448.2	
"15466-94-1"	"cis-1,3-dimethylcyclohexanol"	645	35.9	448.2	
"15468-32-3"	"silicon dioxide (tridymite)"	5021.49	788.13	138.79	
"15469-77-9"	"3-decenoic acid"	776	23	603.6	
"15501-33-4"	"1-iodo-2,2-dimethylpropane"	580.92	41.36	323.5	0.623
"1551-06-0"	"2-ethyl-1H-pyrrole"	630	44	312.5	
"1551-09-3"	"3-propyl-1H-pyrrole"	650	40.5	350.3	
"1551-21-9"	"3-methyl-2-thiabutane"	551	39	307.5	0.259
"1551-27-5"	"2-propylthiophene"	649.23	37.82	387.5	0.342
"1551-32-2"	"2-ethylthiacyclopentane"	659.28	38.1	358.5	0.273
"1551-88-8"	"cis-2,3-dimethylcyclohexanone"	670	32.5	421.7	
"1551-89-9"	"trans-2,3-dimethylcyclohexanone"	670	32.5	421.7	
"1552-12-1"	"cis,cis-1,5-cyclooctadiene"	645	39	366	0.286
"1552-67-6"	"ethyl 2-hexenoate"	616	26	470.5	
"15520-10-2"	"1,5-diamino-2-methylpentane"	663	38.1	408.4	0.65
"15521-18-3"	"2-(dimethylamino)-1-propanol"	626.41	37.9	368	0.841
"1555-17-5"	"1-fluoropentadecane"	702.1	13.3	883	0.698
"1559-35-9"	"2-(2-ethylhexyloxy)ethanol"	646	22.3	611	0.983
"1559-81-5"	"1-methyl-[1,2,3,4-tetrahydronaphthalene]"	722.13	30.76	492.5	0.379
"15594-90-8"	"1-henicosanol"	801.6	11.4	1173.7	
"15597-63-4"	"phosphorus (III) dichloride fluoride"	463	49.6	208	
"156-43-4"	"p-phenetidine"	754	35.7	446	0.553
"156-59-2"	"cis-1,2-dichloroethylene"	544	51.9	224	0.135
"156-60-5"	"trans-1,2-dichloroethylene"	516.5	55.1	224	0.223
"156-87-6"	"3-amino-1-propanol"	649	55	245	0.827
"1560-06-1"	"2-butenylbenzene"	682.45	30.88	467.3	0.356
"1560-09-4"	"cis-(1-butenyl)benzene"	678.55	31.04	467.5	0.366
"1560-86-7"	"2-methylnonadecane"	763.21	10.21	1208	0.748
"1560-88-9"	"2-methyloctadecane"	751.64	10.86	1148.3	0.741
"1560-89-0"	"2-methylheptadecane"	739.33	11.59	1088.6	0.727
"1560-92-5"	"2-methylhexadecane"	726.23	12.38	1028.9	0.708
"1560-93-6"	"2-methylpentadecane"	713.05	13.26	969.2	0.683
"1560-95-8"	"2-methyltetradecane"	698.98	14.24	869.5	0.654
"1560-96-9"	"2-methyltridecane"	684.08	15.33	813.5	0.622
"1560-97-0"	"2-methyldodecane"	668.02	16.55	757.5	0.586
"15607-89-3"	"sulfur bromide pentafluoride"	427.96	43.01	216.76	
"1561-10-0"	"ethyl 4-methylhexanoate"	629	23.3	547	0.596
"1565-80-6"	"(S)-(-)-2-methyl-1-butanol"	562.34	38.9	326.9	0.577
"1565-81-7"	"3-decanol"	632.85	23.16	608.5	0.883
"1567-14-2"	"methyl trans-2-methyl-2-pentenoate"	592.33	28.3	428	0.432
"15672-88-5"	"1-iodo-3,3-dimethylbutane"	607.49	36.55	378.5	0.705
"15673-00-4"	"1-amino-3,3-dimethylbutane"	598.02	33.88	389.5	0.387
"15679-01-3"	"1,cis-2-dimethylcyclobutane"	525.83	35.77	319.5	0.231
"15679-02-4"	"1,trans-2-dimethylcyclobutane"	513.5	35.77	319.5	0.231
"15687-27-1"	"ibuprofen"	777	23.3	660	0.823
"1569-01-3"	"1-propoxy-2-propanol"	573	33	400	0.8
"1569-02-4"	"1-ethoxy-2-propanol"	582	36.7	350.1	0.783
"1569-43-3"	"3,5-dimethyl-4-hexeN-3-ol"	615	31	387.5	
"1569-44-4"	"3-methyl-5-hexeN-3-ol"	601	35	341	
"1569-50-2"	"3-penteN-2-ol"	573	45.5	258.4	
"1569-59-1"	"3-methyl-4-penteN-2-ol"	587	39	303.8	
"1569-60-4"	"6-methyl-5-hepteN-2-ol"	615	31	387.5	
"1569-69-3"	"cyclohexanethiol"	664	39.7	355	0.264
"157-40-4"	"spiropentane"	499.74	52.13	236.5	0.221
"15706-73-7"	"butyl sec-pentanoate"	614.21	23.08	509.6	0.771
"15726-15-5"	"3-methyl-4-heptanone"	624	26.4	469	0.528
"1573-28-0"	"3,6-dimethyl-3-heptanol"	605.89	25.95	541.5	0.748
"1574-32-9"	"N-tetranonacontane"	1204.95	1.75	5625.8	
"1574-33-0"	"3-methyl-3-penteN-1-yne"	525	40	284.3	
"1574-40-9"	"cis-3-penteN-1-yne"	505	43.93	253.3	0.189
"1574-41-0"	"cis-1,3-pentadiene"	499	37.4	276	0.147
"1575-74-2"	"2-methyl-4-pentenoic acid"	696	33	389.4	
"1576-85-8"	"4-pentenyl acetate"	592.33	28.3	428	0.432
"1576-87-0"	"trans-2-pentenal"	570	41	271.5	
"1576-95-0"	"cis-2-penteN-1-ol"	573	45.5	258.4	
"1576-96-1"	"trans-2-penteN-1-ol"	573	45.5	258.4	
"1577-18-0"	"trans-3-hexenoic acid"	696	33	389.4	
"1577-22-6"	"5-hexenoic acid"	696	33	389.4	
"15790-88-2"	"methyl trans-2-pentenoate"	569	32.5	376	0.434
"15833-75-7"	"3,3-dimethyltetrahydrofuran"	573.9	40.16	331.5	0.269
"15840-60-5"	"2-methyl-cis3-hexene"	533.58	29.86	401.5	0.302
"1585-17-7"	"2,4-bis(chloromethyl)-1,3,5-trimethylbenzene"	810	25	643.4	
"15869-80-4"	"3-ethylheptane"	590	23.9	528	0.408
"15869-85-9"	"5-methylnonane"	610	21.6	583	0.456
"15869-86-0"	"4-ethyloctane"	609.6	21.78	552	0.443
"15869-87-1"	"2,2-dimethyloctane"	602	21.6	574	0.429
"15869-89-3"	"2,5-dimethyloctane"	603	21.7	575	0.44
"15869-92-8"	"3,4-dimethyloctane"	614	22.39	551	0.417
"15869-93-9"	"3,5-dimethyloctane"	606.3	21.89	555	0.424
"15869-94-0"	"3,6-dimethyloctane"	608.3	21.89	562	0.424
"15869-95-1"	"4,4-dimethyloctane"	606.9	22.09	548	0.402
"15869-96-2"	"4,5-dimethyloctane"	612.2	22.39	546	0.418
"1587-04-8"	"1-methyl-2-allylbenzene"	682.45	30.88	467.3	0.356
"1587-26-4"	"cis-2,3-dichloro-2-butene"	640	37.98	332	0.302
"1587-29-7"	"trans-2,3-dichloro-2-butene"	640	37.98	332	0.302
"15870-10-7"	"2-methyl-1-heptene"	567	26	453	0.355
"15874-03-0"	"6,11-dipentylhexadecane"	839.06	7.25	1566.2	
"15877-57-3"	"3-methylpentanal"	576.34	34.12	382.5	0.433
"1588-44-9"	"5-hexenylbenzene"	723	25.5	586.3	
"1589-47-5"	"2-methoxy-1-propanol"	566	43.4	294	0.719
"1589-49-7"	"3-methoxy-1-propanol"	569	42.4	297.3	0.759
"15890-36-5"	"trans-4-isopropylcyclohexanol"	655	33.9	478.8	