"CASRN"	"Chemical"	"Tc"	"Pc"	"Vc"	"omega"
"18356-71-3"	"silane, dichlorodifluoro"	369	35	247.69	0.072
"18362-97-5"	"isopropyl pentanoate"	602	26.1	494	0.395
"18371-13-6"	"2-methyl-2-ethyl-1-butanol"	593.16	31.6	435.5	0.695
"18371-24-9"	"1,3-diiodobutane"	726.41	37.27	429.5	0.287
"1838-59-1"	"allyl formate"	530	42.5	270	0.343
"1838-73-9"	"3-methyl-4-heptanol"	591.45	28.35	490.5	0.773
"1838-77-3"	"4-methyl-5-hexeN-3-ol"	601	35	341	
"1839-63-0"	"1,3,5,-trimethylcyclohexane"	621.31	27.4	470.6	0.29
"1839-88-9"	"1,cis-2,cis-3-trimethylcyclohexane"	629.26	26.49	470.5	0.28
"18402-83-0"	"trans-3-noneN-2-one"	655	28.6	511.2	
"18409-17-1"	"trans-2-octeN-1-ol"	615	31	387.5	
"1842-05-3"	"1,1-dichloro-1,2-difluoroethane"	488.39	41.36	270.5	0.264
"18433-84-6"	"pentaborane"	547.13	41.29	301.82	0.134
"18435-20-6"	"2,3-dimethyltridecane"	701.64	14.33	863.5	0.629
"18435-22-8"	"3-methyltetradecane"	700.41	14.24	869.5	0.654
"18435-23-9"	"2,3-dimethyltetradecane"	716.26	13.34	969.2	0.659
"18435-45-5"	"1-nonadecene"	760	12.8	1100	0.841
"18435-53-5"	"1-triacontene"	857	8.47	1710	1.18
"18435-54-6"	"1-hentriacontene"	901.89	5.8	1752.5	
"18435-55-7"	"1-dotriacontene"	915.81	5.54	1808.5	
"18437-89-3"	"5-thiaheneicosane"	832.33	10.27	1209.5	0.795
"18441-55-9"	"2,4-dimethyl-5-ethylphenol"	733.24	33.18	421.5	0.54
"18441-56-0"	"2-methyl-4-propylphenol"	734.16	33.76	421.5	0.541
"18476-57-8"	"4,5-dimethyl-2,6-octadiene"	646	30	457.7	
"18479-51-1"	"3,7-dimethyl-6-octeN-3-ol"	643	23	527.6	
"18479-57-7"	"2,6-dimethyt-2-octanol"	644.39	23.59	597.5	0.788
"18495-30-2"	"1,1,2,3-tetrachloropropane"	677.77	37.27	387.5	0.342
"18516-37-5"	"2-methyl-1-undecene"	656.53	18.53	689.5	0.532
"18521-07-8"	"cis-2-methyl-3-octeN-2-ol"	629	27	447.3	
"18589-29-2"	"2-iodoheptane"	646.56	32.06	446.5	0.816
"18593-92-5"	"3-methyl-2-isopropyl-1-butanol"	606.01	28.6	484.5	0.741
"1860-27-1"	"1-(1-methylethoxy)butane"	549	27.4	435	0.403
"18610-33-8"	"4-chloro-trans-2-pentene"	564.66	35.64	338.5	0.267
"18636-94-7"	"dimethyl-3-pentylamine"	563.35	29.41	459.5	0.406
"18675-20-2"	"2,4-dimethyl-2-octanol"	644.39	23.59	597.5	0.788
"1871-57-4"	"3-chloro-2-(chloromethyl)-1-propene"	640	37.98	332	0.302
"1871-58-5"	"1,2,3-trichloro-2-methylpropane"	659.52	34.85	395.5	0.3
"1871-67-6"	"trans-2-octenoic acid"	736	27	494.4	
"18720-62-2"	"2-methyl-3-heptanol"	595.37	28.35	490.5	0.773
"18720-65-5"	"5-methyl-3-heptanol"	576.46	28.35	490.5	0.773
"18720-66-6"	"6-methyl-3-heptanol"	584.9	28.35	490.5	0.773
"1873-29-6"	"isobutyl isocyanate"	568	34.4	360	0.415
"1873-54-7"	"3-ethylquinoline"	775.67	34.12	514.5	0.498
"1878-18-8"	"2-methyl-1-butanethiol"	591	35	364	0.306
"18787-63-8"	"2-hexadecanone"	736.51	13.81	937.5	0.81
"18787-64-9"	"3-hexadecanone"	736.51	13.81	937.5	0.81
"1879-09-0"	"2-tert-butyl-4,6-dimethylphenol"	755.67	27.47	598.7	0.59
"18800-51-6"	"2,3-dimethylthiophenol"	730.98	38.06	429.5	0.373
"18800-53-8"	"3,4-dimethylthiophenol"	730.98	38.06	429.5	0.373
"18812-62-9"	"2-methyl-3-hexeN-2-ol"	601	35	341	
"18826-95-4"	"1-methyl-1,3-propanediol"	652.97	50.3	291.5	1.141
"18829-55-5"	"2-heptenal"	610	33	358	
"18829-56-6"	"trans-2-nonenal"	650	26	480.1	
"18835-32-0"	"1-tricosene"	802.72	8.73	1304.5	0.742
"18835-33-1"	"1-hexacosene"	837.68	7.42	1472.5	
"18835-34-2"	"1-octacosene"	861.7	6.7	1584.5	
"18835-35-3"	"1-nonacosene"	875.48	6.38	1640.5	
"1886-75-5"	"di-tert-butylsulfone"	767	25.4	569	0.688
"18869-72-2"	"9-methylheptadecane"	737.16	11.71	1088.6	0.724
"1888-57-9"	"2,5-dimethyl-3-hexanone"	624	26.4	469	0.528
"1888-85-3"	"sec-butyl vinyl ether"	536	31.2	364	0.38
"1889-67-4"	"2,3-dimethyl-2,3-diphenylbutane"	805	19.9	781	0.521
"18908-66-2"	"1-bromo-2-ethylhexane"	665.09	27.21	545.5	0.524
"18931-71-0"	"1,1-dimethylcyclobutane"	514.04	39.36	318.5	0.218
"18932-14-4"	"2,2,4-trimethyloctane"	618.73	19.81	634.5	0.419
"18936-17-9"	"2-methylbutanenitrile"	585.8	34	335.5	0.397
"18938-47-1"	"3-methyl-3,4-hexanediol"	677.27	35.47	448.5	1.141
"18963-00-3"	"1,2,3-trichloro-2-(chloromethyl)propane"	690	34	439.5	
"18963-01-4"	"1,1,2,3-tetrachloro-2-methylpropane"	690	34	439.5	
"18970-44-0"	"1-ethyl-2-isopropylbenzene"	666	26.7	530	0.418
"18999-28-5"	"2-heptenoic acid"	716	29	451.8	
"19009-56-4"	"2-methyldecanal"	672	20	632	0.697
"19031-61-9"	"3-fluoro-3-methylpentane"	508.31	30.19	378.5	0.282
"19037-72-0"	"4,4-dimethylcyclopentene"	559.35	37.68	352.5	0.232
"19089-47-5"	"2-ethoxy-1-propanol"	582	36.7	350.1	0.783
"19089-92-0"	"hexyl-2-butenoate"	650	23.5	540.2	
"19113-78-1"	"3,5-dimethyl-3-hexanol, (±)"	600.92	28.49	488	0.733
"19132-06-0"	"(2S,3S)-(+)-2,3-butanediol"	630.99	50.32	289.9	1.127
"19177-04-9"	"1-methyl-3-(1-methylethoxy)benzene"	670	28.4	495	0.445
"19182-11-7"	"1,2-diethylnaphthalene"	812.35	24.6	633.5	0.537
"19182-13-9"	"1,6-diethylnaphthalene"	812.35	24.6	633.5	0.537
"19184-10-2"	"cis-1-fluoro-1-propene"	430.49	44.5	201.5	0.208
"1921-70-6"	"2,6,10,14-tetramethylpentadecane"	748.87	10.95	1148.3	0.741
"19218-94-1"	"1-iodotetradecane"	758.94	16.82	838.5	1.03
"19264-94-9"	"3,3-dimethyl-1-pentanol"	604.2	31.6	435.5	0.695
"19269-28-4"	"3-methylhexanal"	593	28.5	434	0.464
"1928-30-9"	"2-methyltricosane"	814.95	8.06	1446.8	0.71
"19287-45-7"	"diborane"	289.8	40.53	173.1	0.125
"19313-57-6"	"5-thiapentadecane"	762.23	15.44	873.5	0.7
"19313-61-2"	"3-thiatridecane"	733.68	18.06	761.5	0.631
"19374-46-0"	"1,trans-2,cis-3-trimethylcyclopentane"	572.46	28.54	422.5	0.265
"19398-53-9"	"2,4-dibromopentane"	673.87	41.95	427.5	0.448
"19398-61-9"	"2,5-dichlorotoluene"	710	36.2	404	0.343
"19398-75-5"	"1,3-diethylcyclopentane"	610.99	26.81	477.3	0.302
"19398-77-7"	"3,4-diethylhexane"	618.8	23.3	519	0.403
"1940-18-7"	"1-ethylcyclohexanol"	645	35.9	448.2	
"19411-41-7"	"3,3,4-trimethyl-2-pentanol"	602.05	28.94	479.5	0.674
"1942-45-6"	"4-octyne"	594.1	29.59	444.3	0.359
"1942-46-7"	"5-decyne"	642.22	24.46	557.5	0.417
"19447-29-1"	"2-nonyne"	630.31	27.07	501.5	0.368
"1945-53-5"	"palustric acid"	789	17.2	993	0.917
"19482-57-6"	"2,2-dimethyl-3-octyne"	642.22	24.46	557.5	0.417
"19484-26-5"	"1-tridecanethiol"	742.13	17.33	817.5	0.673
"19486-08-9"	"2,2-dimethylhexadecane"	734.97	11.67	1088.6	0.683
"19489-10-2"	"1-methyl-cis3-ethylcyclohexane"	620.1	27.41	471.5	0.305
"19522-67-9"	"N-isopropylethylenediamine"	637.67	42.1	358	0.591
"19522-69-1"	"N-butylethylenediamine"	663	38.1	408.4	0.65
"19549-70-3"	"2,2-dimethyl-3-heptanol"	607.23	25.95	541.5	0.748
"19549-71-4"	"2,3-dimethyl-3-heptanol"	602.05	25.95	541.5	0.748
"19549-73-6"	"2,6-dimethyl-3-heptanol"	600.27	25.87	540.5	0.782
"19549-74-7"	"3,5-dimethyl-3-heptanol"	605.89	25.95	541.5	0.748
"19549-77-0"	"2,4-dimethyl-4-heptanol"	598.55	25.95	541.5	0.748
"19549-78-1"	"3,3-dimethyl-4-heptanol"	604.74	25.95	541.5	0.748
"19549-79-2"	"3,5-dimethyl-4-heptanol"	616.34	25.87	540.5	0.782
"19549-83-8"	"2,6-dimethyl-3-heptanone"	629.65	24.67	533.8	0.541
"19549-84-9"	"3,5-dimethyl-4-heptanone"	629.65	24.67	533.8	0.541
"19549-97-4"	"2,6-dimethyl-3-heptyne"	621.49	26.96	501.5	0.373
"19550-02-8"	"2,3-dimethyl-1-hexanol"	603.81	28.35	490.5	0.773
"19550-03-9"	"2,3-dimethyl-2-hexanol"	591.82	28.69	485.5	0.706
"19550-05-1"	"3,4-dimethyl-2-hexanol"	603.29	28.6	484.5	0.741
"19550-07-3"	"2,5-dimethyl-3-hexanol"	587	28.6	484.5	0.741
"19550-08-4"	"3,4-dimethyl-3-hexanol"	580.75	28.69	485.5	0.706
"19550-09-5"	"4,4-dimethyl-3-hexanol"	590.31	28.69	485.5	0.706
"19550-10-8"	"3,4-dimethyl-2-hexanone"	624	26.4	469	0.528
"19550-14-2"	"4,4-dimethyl-3-hexanone"	624	26.4	469	0.528
"19550-30-2"	"2,3-dimethyl-1-butanol"	599	34.7	373	0.576
"19550-40-4"	"3,cis-6-dimethylcyclohexene"	597.92	31.63	401.5	0.26
"19550-48-2"	"1,4-dimethylcyclopentene"	560.17	34.32	353.5	0.245
"19550-81-3"	"3,4-dimethyl-cis2-hexene"	570.01	27.1	458.5	0.322
"19550-82-4"	"3,4-dimethyl-trans-2-hexene"	570.01	27.1	458.5	0.322
"19550-83-5"	"4,4-dimethyl-trans-2-hexene"	560.54	27.27	452.5	0.287
"19550-87-9"	"3,4-dimethyl-cis3-hexene"	578	27.01	465.5	0.326
"19550-88-0"	"3,4-dimethyl-trans-3-hexene"	578	27.01	465.5	0.326
"19624-22-7"	"pentaborane"	568.45	46.41	285.1	
"19655-56-2"	"8-ethylquinoline"	761.28	34.12	514.5	0.498
"19655-60-8"	"6-ethylquinoline"	771.14	34.12	514.5	0.498
"19689-18-0"	"4-decene"	616.98	21.85	581.3	0.457
"1969-43-3"	"1-ethoxy-heptane"	592.67	22.98	541.2	0.508
"1974-04-5"	"2-bromoheptane"	651	30.8	447	0.444
"1975-78-6"	"decanenitrile"	692.64	20.6	621.5	0.645
"19780-10-0"	"5-dodecanone"	687.46	18.79	713.5	0.691
"19780-25-7"	"2-ethylcrotonaldehyde"	590	37	310.1	
"19780-39-3"	"3-ethyl-2-heptanol"	606.35	25.66	546.5	0.814
"19780-41-7"	"3-ethyl-3-heptanol"	609.87	25.74	547.5	0.78
"19780-44-0"	"4-ethyl-3-hexanol"	590.5	28.35	490.5	0.773
"19780-63-3"	"2-methyl-3-ethyl-2-pentanol"	588.68	28.69	485.5	0.706
"19780-65-5"	"3-ethyl-3-methyl-2-pentanone"	624	26.4	469	0.528
"19780-66-6"	"2-methyl-3-ethyl-1-pentene"	559.31	26.82	459.5	0.332
"19780-67-7"	"2-methyl-3-ethyl-2-pentene"	570.68	27.01	465.5	0.326
"19780-90-6"	"2,4-hexanediol"	649.93	39.42	396.9	1.16
"19780-96-2"	"2,8-dimethyl-5-nonanol"	696.85	21.3	650.5	0.596
"19781-10-3"	"2,3-dimethyl-3-octanol"	614.17	23.59	597.5	0.788
"19781-11-4"	"2,7-dimethyl-4-octanol"	613.56	23.52	596.5	0.822
"19781-13-6"	"4,7-dimethyl-4-octanol"	618.02	23.59	597.5	0.788
"19781-24-9"	"3,3-dimethyl-2-pentanol"	582.97	31.88	429.5	0.662
"19781-27-2"	"6-ethyl-3-octanol"	621.23	23.34	602.5	0.852
"19781-63-6"	"4-ethyl-trans-2-hexene"	562.03	26.96	457.5	0.347
"19781-68-1"	"1-methyl-cis2-ethylcyclopropane"	518.53	34.72	327.5	0.26
"19781-69-2"	"1-methyl-trans-2-ethylcyclopropane"	505.8	34.72	327.5	0.26
"19781-73-8"	"heptadecylcyclohexane"	823.97	9.64	1256.5	0.748
"19781-77-2"	"6-hepteN-3-ol"	601	35	341	
"19812-64-7"	"1,14-tetradecanediol"	773.63	17.68	857.5	1.304
"19841-72-6"	"2,2-dimethyl-3-octanol"	620.48	23.59	597.5	0.788
"1985-57-5"	"(1,1-dimethylbutyl)benzene"	697.15	23.61	602	0.437
"1985-59-7"	"1,2,3,4-tetrahydro-1,1-dimethylnaphthalene"	737.62	27.73	548.5	0.424
"1985-97-3"	"(1-ethyl-1-methylpropyl)benzene"	697.15	23.61	602	0.437
"19866-51-4"	"cis-3-methyl-2-pentenoic acid"	696	33	389.4	
"1987-50-4"	"4-heptylphenol"	760.33	25.13	651.3	0.61
"19879-11-9"	"cis-1,2-dimethylcyclohexanol"	645	35.9	448.2	
"19879-12-0"	"trans-1,2-dimethyl cyclohexanol"	645	35.9	448.2	
"19889-37-3"	"2-ethyl-2-methylbutanoic acid"	680	29.9	442	0.717
"19902-08-0"	"βpinene, (1R)"	647	27.8	505.3	0.341
"19902-98-8"	"1,cis-3-dimethyl-trans-2-ethylcyclopentane"	599.81	25.82	478.5	0.309
"19902-99-9"	"1,trans-3-dimethyl-cis2-ethylcyclopentane"	610.05	25.82	478.5	0.309
"19903-00-5"	"1,cis-3-dimethyl-cis2-ethylcyclopentane"	621.75	25.82	478.5	0.309
"19907-40-5"	"1,trans-2,trans-3,cis-4-tetramethylcyclopentane"	592.68	24.98	477.5	0.284
"19947-22-9"	"(1-ethylallyl)benzene"	703	28	521.3	
"19961-27-4"	"ethylisopropylamine"	513.8	34.9	345	0.403
"20024-90-2"	"1-ethyl-4-propylbenzene"	679.41	26.08	543.5	0.442
"20024-91-3"	"1-ethyl-3-propylbenzene"	673.72	26.08	543.5	0.442
"20027-77-4"	"1,2,3,4-tetrahydro-5,6-dimethylnaphthalene"	737.62	27.73	548.5	0.424
"20030-32-4"	"1,4,5-trimethylcyclohexene"	620	28.6	451.8	
"20038-12-4"	"4-bromo-2-methyl-1-butene"	569.33	39.96	359.5	0.341
"2004-67-3"	"4-methyl-4-penteN-2-ol"	587	39	303.8	
"2004-69-5"	"trans-3-penteN-1-yne"	505	43.93	253.3	0.189
"2004-70-8"	"trans-1,3-pentadiene"	500	37.4	276	0.116
"20056-92-2"	"trans-7-dodeceN-1-ol"	671	20	611.2	
"20063-92-7"	"trans-3-nonene"	593.62	23.72	524.8	0.411
"20089-07-0"	"2-methyl-1-butanethiol, (+)"	583.5	34.18	365.2	0.284
"2009-74-7"	"6-methyl-3-hepteN-2-one"	635	31.6	451.8	
"2014-83-7"	"1,3-dichloro-2-(chloromethyl)-propane"	597.58	34.4	400.5	0.362
"20150-89-4"	"5,7-dimethylquinoline"	786.16	33.53	514.5	0.497
"2016-42-4"	"tetradecylamine"	722	16.6	840	0.861
"2016-57-1"	"decylamine"	663	21.8	629	0.666
"20177-02-0"	"2,5-dichloro-2-pentene"	660	35	376	
"20184-89-8"	"3-nonyne"	623.36	27.07	501.5	0.368
"20184-91-2"	"4-nonyne"	621.49	26.96	501.5	0.373
"20193-20-8"	"ethylpropylamine"	520	34	345	0.393
"20193-21-9"	"N-propylbutylamine"	565.35	29.19	459.3	0.409
"20198-49-6"	"4-methyl-2-hexyne"	568.05	33.72	383.5	0.25
"20232-11-5"	"6-methyl-1H-indene"	693.5	34.6	434.5	0.332
"20237-34-7"	"1,trans-3-hexadiene"	526.7	34.6	332.5	0.266
"20247-89-6"	"(1-methyl-1-pentenyl)benzene"	723	25.5	586.3	
"2026-48-4"	"(S)-(+)-2-amino-3-methyl-1-butanol"	626.41	37.9	368	0.841
"2027-17-0"	"2-isopropylnaphthalene"	770.24	27.79	571.5	0.463
"2027-19-2"	"2-propylnaphthalene"	772.44	27.56	577.5	0.488
"20278-84-6"	"2,4,5-trimethylheptane"	606.9	22.39	544	0.397
"20278-85-7"	"2,3,5-trimethylheptane"	612.8	22.39	547	0.397
"20278-87-9"	"3,3,4-trimethylheptane"	622.1	23.71	526	0.365
"20278-88-0"	"3,4,4-trimethylheptane"	620.9	23.71	524	0.365
"20278-89-1"	"3,4,5-trimethylheptane"	612.8	22.39	547	0.417
"20281-83-8"	"3-methyl-1-pentanol, (±)"	581.8	34.61	377.4	0.582
"20281-85-0"	"2,3-dimethyl-1-butanol, (±)-"	581.8	34.61	377.4	0.582
"20281-86-1"	"(RS)-2-hexanol"	581.8	34.61	377.4	0.582
"20281-91-8"	"3,3-dimethyl-2-butanol, (±)"	581.8	34.61	377.4	0.582
"20291-60-5"	"2-thiaoctane"	638.37	28.51	481.5	0.42
"20291-61-6"	"2-thianonane"	660.72	25.79	537.5	0.465
"20291-91-2"	"3-ethyl-2,2-dimethylhexane"	611.7	23.1	526	0.369
"20291-95-6"	"2,2,5-trimethylheptane"	598	21.68	559	0.389
"20294-76-2"	"1,2-octadecanediol"	814.33	13.18	1075.5	1.135
"20309-77-7"	"1,1,cis-3,cis-4-tetramethylcyclopentane"	602.33	27.04	476.5	0.271
"20327-65-5"	"trans-1-fluoro-1-propene"	430.49	44.5	201.5	0.208
"2035-99-6"	"isoamyl caprylate"	682	17.4	776	0.759
"20352-67-4"	"ethylhexylamine"	599.8	25.2	510	0.535
"2039-89-6"	"2-ethenyl-1,4-dimethylbenzene"	680.23	29.7	468.5	0.375
"2039-90-9"	"2,6-dimethylstyrene"	679.34	29.7	468.5	0.375
"2039-93-2"	"(1-methylenepropyl)benzene"	666	30.1	454	0.354
"20395-24-8"	"1,1-dichlorooctane"	672.06	23.75	575.5	0.485
"20395-25-9"	"1,1,3-trichloropropane"	635.01	38.63	344.5	0.317
"20396-66-1"	"diborane, deutero"	293.74	32.17	208.01	0.017
"2040-95-1"	"butylcyclopentane"	621	27.2	483	0.372
"2040-96-2"	"propylcyclopentane"	596	30.2	428	0.327
"2044-21-5"	"dinonylamine"	761.5	13.3	1062	0.891
"2044-22-6"	"trinonylamine"	802.99	7.03	1585.5	
"20487-40-5"	"1,1-dimethylethyl propanoate"	557	27.2	448	0.788
"20488-34-0"	"2-methyl-cis3-heptene"	560.58	26.96	457.5	0.347
"2049-92-5"	"p-tert-pentylaniline"	700	27.5	566.1	
"2049-94-7"	"1-phenyl-3-methylbutane"	676.37	26.71	537.5	0.413
"2049-95-8"	"2-phenyl-2-methylbutane"	676.93	27.01	532.5	0.351
"2050-00-2"	"1,1-dimethylpropyl butanoate"	603	23.8	500	0.901
"2050-01-3"	"3-methylbutyl isobutanoate"	640	21.2	577	0.488
"2050-09-1"	"3-methylbutyl pentanoate"	637	22	600	0.579
"2050-24-0"	"1-methyl-3,5-diethylbenzene"	672.46	25.69	543.5	0.441
"2050-77-3"	"1-iododecane"	700.35	23.7	614.5	0.932
"2050-92-2"	"dipentylamine"	639	21.2	629	0.677
"2051-04-9"	"diisopentyl disulfide"	726.94	21.75	703.5	0.614
"2051-25-4"	"1,3-decadiene"	646	30	457.7	
"2051-30-1"	"2,6-dimethyloctane"	606	21.7	575	0.439
"2051-31-2"	"4-decanol"	633.05	23.16	608.5	0.883
"2051-32-3"	"3-ethyl-3-octanol"	624.3	23.41	603.5	0.819
"2051-33-4"	"5-methyl-2-isopropyl-1-hexanol"	642.85	23.52	596.5	0.822
"2051-53-8"	"2-methyl-5-isopropylaniline"	690	29.85	525.5	0.69
"2051-78-7"	"allyl butanoate"	592.33	28.3	428	0.432
"2051-84-5"	"N-isopentylaniline"	700	27.5	566.1	
"20515-19-9"	"methyl trans-3-pentenoate"	569	32.5	376	0.434
"2055-40-5"	"4-isopropylstyrene"	685	27	529.1	
"20592-10-3"	"2-ethyl-1-octanol"	631.54	23.16	608.5	0.883
"20599-27-3"	"1-bromo-2-pentene"	586.22	40.33	356.2	0.334
"206-44-0"	"fluoranthene"	905	26.1	655	0.588
"20626-52-2"	"(S)-(-)-2-methylbutylamine"	525.16	35.4	345.8	0.379
"20634-92-8"	"N-ethyl-N-propyl-1-propanamine"	601.45	26.52	517.6	0.5
"20654-44-8"	"2,3-dimethylbutanenitrile"	582.4	30.76	385.5	0.412
"20654-46-0"	"2,2-dimethylbutanenitrile"	588.3	30.86	386.5	0.379
"20667-05-4"	"2-methyl-1,2-pentanediol"	646.52	39.51	398.5	1.14
"20668-26-2"	"3,6-dimethylquinoline"	780.41	33.53	514.5	0.497
"20668-28-4"	"3,7-dimethylquinoline"	781.85	33.53	514.5	0.497
"20668-29-5"	"3,8-dimethylquinoline"	767.48	33.53	514.5	0.497
"20668-30-8"	"5,6-dimethylquinoline"	784.5	33.53	514.5	0.497
"20668-33-1"	"6,7-dimethylquinoline"	785.94	33.53	514.5	0.497
"20669-04-9"	"3,3-dimethyl-2-pentanone"	589.07	30.59	422.5	0.387
"20687-01-8"	"1-iodo-2-methyl-1-propene"	608.34	40.73	328.5	0.217
"20699-48-3"	"2,3-butanediamine, (R*,R*)-(±)"	612.33	46.1	318.3	0.533
"20710-38-7"	"3-methyl-trans-2-hexene"	546.42	29.76	408.5	0.307
"20711-10-8"	"cis-tetradec-11-eN-1-yl acetate"	782	16	906.4	
"20747-49-3"	"[1R-(1a,2a,5b)]-5-methyl-2-(1-methylethyl)cyclohexanol"	665	30.9	529.8	
"20748-86-1"	"2,4-heptanediol"	660.11	35.01	453.5	1.212
"20754-04-5"	"3-methyl-4-octanone"	629.65	24.67	533.8	0.541
"20760-06-9"	"2-ethyl-(1-thiaethyl)-benzene"	730.87	32.69	485.5	0.416
"2077-29-4"	"cis-1-methyl-4-(1-propenyl)benzene"	687.86	30.52	467.5	0.365
"2077-30-7"	"trans-1-methyl-4-(1-propenyl)benzene"	695.19	30.52	467.5	0.365
"2077-31-8"	"cis-1-methyl-3-(1-propenyl)benzene"	682.61	30.52	467.5	0.365
"2077-33-0"	"cis-1-methyl-2-(1-propenyl)benzene"	682.61	30.52	467.5	0.365
"2077-46-5"	"2,3,6-trichlorotoluene"	737	33.4	447	0.26
"20780-49-8"	"3,7-dimethyloctyl acetate"	693.8	16.7	751	0.533
"2079-95-0"	"1-tetradecanethiol"	753.8	16.03	873.5	0.707
"208-96-8"	"acenaphthylene"	792	32	544	0.399
"20809-46-5"	"7-methyl-4-octanone"	629.65	24.67	533.8	0.541
"20816-12-0"	"osmium tetroxide"	678	54.14	302.5	0.178
"20820-82-0"	"2,3,4,6-tetramethylpyridine"	673	30	469.4	
"2084-18-6"	"3-methyl-2-butanethiol"	579	34	362	0.283
"2084-19-7"	"2-pentanethiol"	580	34	362	0.302
"2084-45-9"	"1,5-dichloro-2,4-dimethylbenzene"	735	33	446	
"20843-07-6"	"3,4-dimethylfuran"	535.1	41.73	290.4	0.332
"2085-66-7"	"tert-amyl-tert-butylamine"	617.4	23.31	570.9	0.567
"2090-15-5"	"1,1-dicyclohexylheptane"	790.2	14.44	965.5	0.623
"2091-29-4"	"9-hexadecenoic acid"	896	17	925.6	
"2094-75-9"	"2,2-dimethylbutanal"	558.82	34.56	377.5	0.37
"2100-17-6"	"4-pentenal"	570	41	271.5	
"21020-26-8"	"3-ethyl-1-pentyne"	540.76	33.26	383.5	0.27
"21020-27-9"	"4-methyl-2-pentyne"	540.58	37.82	327.5	0.206
"21035-44-9"	"ethyl-sec-butylamine"	538.12	31.81	400.5	0.432
"21078-72-8"	"3-methyl-3-nonanol"	637.32	23.41	603.5	0.819
"2109-98-0"	"2,3-dimethylbutanal"	567.64	34.44	376.5	0.402
"21101-88-2"	"3-methylpentanenitrile"	614.09	30.49	391.5	0.442
"21102-09-0"	"4,4-dimethyl-3-ethyl-2-pentanol"	624.08	26.16	535.5	0.716
"21102-13-6"	"2,3,4-trimethyl-2-hexanol"	630.85	26.16	535.5	0.716
"21129-09-9"	"1,2-tetradecanediol"	751.22	17.8	851.5	1.293
"21129-27-1"	"1-methyl-4-isopropylcyclohexanol"	665	30.9	529.8	
"2121-69-9"	"meso-2,4-dimethyl-1,5-pentanediol"	660.11	35.01	453.5	1.212
"21266-88-6"	"2,3-dibromoheptane"	700.05	32.88	545.5	0.571
"21266-90-0"	"3,4-dibromoheptane"	700.05	32.88	545.5	0.571
"21282-97-3"	"2-(methacryloyloxy)ethyl acetoacetate"	761	22.6	621	0.822
"2131-18-2"	"pentadecylbenzene"	809	13.3	1090	0.857
"2131-38-6"	"1,3,7-trimethylnaphthalene"	779.72	26.71	577.5	0.492
"2131-39-7"	"1,3,5-trimethylnaphthalene"	786.07	26.71	577.5	0.492
"2131-41-1"	"1,4,5-trimethylnaphthalene"	786.77	26.71	577.5	0.492
"2131-42-2"	"1,4,6-trimethylnaphthalene"	776.9	26.71	577.5	0.492
"2131-43-3"	"1,2,5,6-tetramethylnaphthalene"	810.54	23.89	633.5	0.535
"2141-58-4"	"cis-dicyano-1-butene"	796	29.5	392	0.664
"2141-59-5"	"trans-dicyano-1-butene"	766	29.5	392	0.659
"21411-42-7"	"2,4,6-trimethylbenzyl mercaptan"	755	32	524.7	
"2146-38-5"	"1-ethylcyclopentene"	578.4	35.69	354.5	0.27
"21472-86-6"	"1,2,3-trichloro-5-methylbenzene"	737	33.4	447	0.26
"2150-02-9"	"2,2'-oxydiethanethiol"	720	36.9	378	0.419
"2150-18-7"	"2-ethyl-4-methylpyridine"	653	33.3	417	0.376
"21508-07-6"	"2,3-heptanediol"	660.11	35.01	453.5	1.212
"21531-91-9"	"1,3-hexanediol"	664.48	38.97	403.5	1.214
"21542-96-1"	"dimethyldocosylamine"	824.83	8.24	1417.5	0.737
"2156-96-9"	"decyl acrylate"	716	19	717.4	
"21564-91-0"	"1,2,3,4-tetrahydro-1,5-dimethylnaphthalene"	737.62	27.73	548.5	0.424
"21564-92-1"	"1,2,3,4-tetrahydro-2,3-dimethylnaphthalene"	737.62	27.73	548.5	0.424
"2157-31-5"	"2,2-dimethyl-1,3-pentanediol"	636.17	35.47	448.5	1.141
"21570-35-4"	"2-methyl-4-heptanol"	593.34	28.35	490.5	0.773