"CASRN"	"Chemical"	"Tc"	"Pc"	"Vc"	"omega"
"53193-22-9"	"1-heptadecanethiol"	786.01	12.88	1041.5	0.783
"53225-40-4"	"3,trans-4-dimethylcyclopentene"	557.42	34.32	353.5	0.245
"53252-08-7"	"3-ethyl-4-methyl-4-hepteN-2-one"	675	25.6	584.2	
"53252-19-0"	"2-methyl-4-hexeN-3-one"	615	35.6	391.3	
"53252-20-3"	"6-methyl-6-noneN-4-one"	675	25.6	584.2	
"53252-21-4"	"3,4-dimethyl-4-hexeN-2-one"	635	31.6	451.8	
"53268-66-9"	"cis-1-chloro-1-heptene"	613.52	28.44	456.5	0.385
"53268-67-0"	"trans-1-chloro-1-heptene"	613.52	28.44	456.5	0.385
"5329-14-6"	"sulfamic acid"		0	225	
"5329-79-3"	"2-aminohexane"	584.76	33.45	394.5	0.451
"533-98-2"	"1,2-dibromobutane"	659.28	47.17	377.5	0.429
"53310-02-4"	"2-amino-2-methylpentane"	555.56	33.88	389.5	0.387
"5332-52-5"	"1-undecanethiol"	710	19.8	676	0.639
"5333-42-6"	"2-octyl-1-dodecanol"	791.6	11.9	1136.5	0.918
"53346-71-7"	"3-pentadecanol"	732.87	15.65	886.3	0.871
"5335-75-1"	"4-butylpyridine"	673	30	469.4	
"53369-71-4"	"N,N,2,2-tetramethyl-1,3-propanediamine"	689	34.5	465.4	
"5337-72-4"	"2,6-dimethylcyclohexanol"	645	35.9	448.2	
"53392-86-2"	"1,1,1-trifluorooctane"	554.5	22.1	522	0.467
"53398-80-4"	"trans-2-hexenyl propionate"	628	24.5	504.8	
"53398-85-9"	"cis-3-hexenyl 2-methylbutyrate"	672	22.5	578.4	
"53399-81-8"	"ethyl 2-methyl-4-pentenoate"	616	26	470.5	
"534-00-9"	"1-bromo-2-methylbutane, (S)"	582.97	38.19	370.3	0.342
"534-22-5"	"2-methylfuran"	527	47.2	247	0.283
"5340-36-3"	"2-ethyl-2-heptanol"	609.4	25.74	547.5	0.78
"5340-41-0"	"2,2,3-trimethyl-3-hexanol"	607.47	26.24	536.5	0.682
"5340-62-5"	"5,5-dimethyl-3-ethyl-3-hexanol"	617.38	23.84	592.5	0.724
"5341-95-7"	"meso-2,3-butanediol"	609.07	50.87	285.5	1.103
"5343-92-0"	"1,2-pentanediol"	637.98	44.09	347.5	1.179
"5343-96-4"	"1,2-dimethylpropyl acetate"	576	28.4	436	0.435
"53434-74-5"	"trans-1-bromo-1-heptene"	630.55	31.96	469.5	0.447
"53434-75-6"	"trans-1-bromo-1-nonene"	666.86	26	581.5	0.536
"5344-20-7"	"1-amino-4-methylpentane"	575.91	33.45	394.5	0.451
"5349-51-9"	"4-tert-amylcyclohexanol"	675	28	589.5	
"535-77-3"	"m-cymene"	649	28.1	494	0.378
"53510-18-2"	"5-methyl-trans-3-heptene"	560.58	26.96	457.5	0.347
"53543-44-5"	"5-chloro-cis2-pentene"	576.34	35.3	344.5	0.296
"53566-37-3"	"5-methyl-2-hexyne"	572.5	33.72	383.5	0.25
"53594-82-4"	"2,2-dimethylheptadecane"	746.87	10.94	1148.3	0.701
"536-74-3"	"ethynylbenzene"	650	42.8	332	0.226
"536-75-4"	"4-ethylpyridine"	668.2	39.8	367	0.344
"536-78-7"	"3-ethylpyridine"	657.7	39.8	367	0.388
"536-88-9"	"4-ethyl-2-methylpyridine"	653	33.3	417	0.376
"5362-55-0"	"4-methyl-2-penteN-1-ol"	587	39	303.8	
"5362-56-1"	"4-methyl-2-pentenal"	590	37	310.1	
"5363-64-4"	"hexyl vinyl ether"	586	27	452.4	
"53636-17-2"	"(S)-(+)-1-dimethylamino-2-propanol"	626.41	37.9	368	0.841
"53696-14-3"	"6-methyldecanoic acid"	725	20.95	675.5	0.88
"53731-19-4"	"3-fluoro-1-butene"	445.34	39.21	252.5	0.232
"53731-22-9"	"1,1-difluoro-3-methylbutane"	463.41	31.85	339.5	0.321
"53731-23-0"	"1,1-difluoro-2,2-dimethylpropane"	467.07	32.25	334.5	0.261
"53731-24-1"	"3-fluoro-2-methyl-1-butene"	472.95	35.1	309.5	0.251
"53731-25-2"	"2,3-difluoro-2-methylbutane"	467.07	32.25	334.5	0.261
"53750-52-0"	"4-iodo-2-methyl-1-butene"	624.84	35.73	385.5	0.271
"53774-20-2"	"2-methyl-3-butenoic acid"	676	40.47	316.5	0.395
"53778-43-1"	"1-methyl-1-ethylcyclopropane"	507.94	37.18	316.5	0.248
"53778-73-7"	"1-methoxy-2-butanol"	582	36.7	350.1	0.783
"5379-20-4"	"1-ethenyl-3,5-dimethylbenzene"	679.34	29.7	468.5	0.375
"538-68-1"	"pentylbenzene"	679.9	26.04	550	0.438
"538-93-2"	"isobutylbenzene"	650	30.5	478	0.382
"53897-51-1"	"3,4-dimethyl-2-thiapentane"	597.54	32.25	413.5	0.321
"539-30-0"	"benzyl ethyl ether"	662	31.1	442	0.433
"539-32-2"	"3-butylpyridine"	673	30	469.4	
"539-82-2"	"ethyl pentanoate"	587.95	28.4	442	0.407
"539-90-2"	"2-methylpropyl butanoate"	611	24.9	502	0.422
"53939-51-8"	"nonadecyl acetate"	787.4	8.8	1273	
"5395-75-5"	"3,6-dithiaoctane"	673	27.5	479.5	0.37
"5396-09-8"	"2,3,5,5-tetramethyl-3-hexanol"	640.92	24.03	586.5	0.693
"5396-58-7"	"2-methyl-2,3-butanediol"	600.61	45.22	336.5	1.066
"53966-53-3"	"2-methyl-3-nonene"	616.98	21.85	581.3	0.457
"53971-47-4"	"2,2,3-trimethylthiacyclopropane"	569.72	40.99	315.5	0.224
"5398-25-4"	"2,3-dibromopentane"	668.68	41.95	427.5	0.448
"5399-02-0"	"heptadecanenitrile"	779.15	12.1	1013.5	0.835
"540-07-8"	"pentyl hexanoate"	652	20.47	658.7	0.639
"540-08-9"	"9-heptadecanone"	745.97	12.87	993.5	0.827
"540-09-0"	"12-tricosanone"	794.72	9.1	1225.2	
"540-10-3"	"hexadecyl hexadecanoate"	875	7	1918.2	
"540-18-1"	"pentyl butanoate"	636.7	20.8	577	0.449
"540-36-3"	"p-difluorobenzene"	556	44	299.5	0.299
"540-42-1"	"2-methylpropyl propanoate"	592	27.3	447	0.384
"540-43-2"	"N-methyl-2-heptanamine"	601.45	26.52	517.6	0.5
"540-54-5"	"1-chloropropane"	503.15	45.8	247	0.228
"540-59-0"	"1,2-dichloroethylene, cis and trans"	505.67	51.9	224	0.267
"540-61-4"	"aminoacetonitrile"	638	54.4	229	0.466
"540-63-6"	"1,2-ethanedithiol"	663	53.6	209	0.257
"540-67-0"	"methyl ethyl ether"	437.8	44	221	0.222
"540-82-9"	"ethyl sulfate"	857	89.8	293	0.494
"540-84-1"	"2,2,4-trimethylpentane"	543.8	25.7	468	0.303
"540-88-5"	"tert-butyl acetate"	545	31.7	389	0.34
"54004-41-0"	"4-methyl-2-propyl-1-pentanol"	620.94	26.19	531.5	0.813
"54004-43-2"	"1-methylbutyl propanoate"	597	25.5	497	0.691
"5405-79-8"	"2,2-dimethyl-3-hexanone"	624	26.4	469	0.528
"54068-75-6"	"cis-1-iodo-1-butene"	686.08	40.47	327.5	0.242
"5408-57-1"	"7-methyl-3-octanone"	629.65	24.67	533.8	0.541
"5408-86-6"	"2,3-dibromobutane"	657.46	47.42	375.3	0.415
"541-01-5"	"hexadecamethylheptasiloxane"	671.8	6.77	2133	0.887
"541-02-6"	"decamethylcyclopentasiloxane"	619.15	11.6	1216	0.666
"541-05-9"	"hexamethylcyclotrisiloxane"	554.2	16.63	634	0.474
"541-28-6"	"1-iodo-3-methylbutane"	593.01	40.78	328.5	0.694
"541-31-1"	"3-methyl-1-butanethiol"	604	35	364	0.22
"541-33-3"	"1,1-dichlorobutane"	584.34	35.94	351.5	0.308
"541-41-3"	"ethyl chloroformate"	508.15	45	274	0.835
"541-47-9"	"3-methyl-2-butenoic acid"	676	40.83	322.5	0.389
"541-73-1"	"m-dichlorobenzene"	683.95	40.7	351	0.279
"541-85-5"	"5-methyl-3-heptanone"	624	26.4	469	0.528
"54105-66-7"	"undecylcyclohexane"	761.74	14.29	920.5	0.646
"54105-76-9"	"isopentylcyclohexane"	674.01	23.36	584.5	0.413
"5412-69-1"	"5-diethylamino-2-pentanol"	760	29	557	
"5412-92-0"	"N-(1-methylheptyl)-2-octanamine"	732.83	13.54	953.6	0.793
"54166-32-4"	"2,6,6-trimethyloctane"	624.99	19.81	634.5	0.419
"542-10-9"	"ethylidene diacetate"	635	32.6	406	0.478
"542-37-0"	"1,1-dimethylpropyl isopentanoate"	657.2	19	635	0.474
"542-50-7"	"14-heptacosanone"	822.72	8	1273.9	
"542-54-1"	"4-methylpentanenitrile"	615.53	30.49	391.5	0.442
"542-55-2"	"isobutyl formate"	551.35	38.81	352	0.39
"542-69-8"	"1-iodobutane"	621	43.2	343	0.209
"542-75-6"	"1,3-dichloropropene"	577	43.8	277	0.206
"542-88-1"	"bis(chloromethyl) ether"	579	45.8	258	0.324
"542-92-7"	"cyclopentadiene"	507	51.5	225	0.212
"54244-90-5"	"3-ethyl-4-methyl-3-hepteN-2-one"	675	25.6	584.2	
"54265-17-7"	"trans-1-bromo-2-methyl-1-butene"	592.21	40.47	358.5	0.331
"54268-02-9"	"1,2,2,3-tetrabromopropane"	782.3	68.19	440.5	0.587
"54287-41-1"	"3-amino-2-methylpentane"	596.83	33.76	388.5	0.419
"54298-97-4"	"2-methyl-7-octeN-4-one"	655	28.6	511.2	
"543-49-7"	"2-heptanol"	608.32	30.21	442	0.557
"543-59-9"	"1-chloropentane"	568	33.5	352	0.333
"543-82-8"	"2-amino-6-methylheptane"	601.45	26.52	517.6	0.5
"54305-87-2"	"2,3-dichlorohexane"	633.09	28.91	463.5	0.397
"5432-85-9"	"4-isopropylcyclohexanone"	690	29.5	474.6	
"54334-64-4"	"diethylundecylamine"	688.97	14.57	913.5	0.746
"5434-27-5"	"1,3-dibromo-2,2-dimethylpropane"	686.65	42.55	422.5	0.382
"5434-57-1"	"hexyl tert-pentanoate"	677.2	17.7	693	0.621
"5435-64-3"	"3,5,5-trimethylhexanal"	640	23.3	527	0.592
"54363-49-4"	"methylpentadiene, isomers"	526.51	34.94	332.4	0.25
"544-00-3"	"diisopentylamine"	644.56	21.59	624.1	0.585
"544-01-4"	"diisopentyl ether"	622	20.9	593	0.601
"544-02-5"	"diisopentyl sulfide"	701.03	21.41	649.5	0.551
"544-10-5"	"1-chlorohexane"	596.19	29.83	420.5	0.373
"544-13-8"	"glutaronitrile"	782	31.5	352	0.603
"544-25-2"	"1,3,5-cycloheptatriene"	593.9	43.34	311.5	0.324
"544-40-1"	"5-thianonane"	650	25	537.5	0.394
"544-63-8"	"tetradecanoic acid"	765	17	811	0.936
"544-65-0"	"4-tetradecenoic acid"	856	18	839	
"544-66-1"	"5-tetradecenoic acid"	856	18	839	
"544-76-3"	"hexadecane"	723	14	969.2	0.717
"544-77-4"	"1-iodohexadecane"	783.25	14.46	950.5	1.042
"544-85-4"	"dotriacontane"	855	7.5	1924.4	1.377
"5441-51-0"	"4-ethylcyclohexanone"	670	32.5	421.7	
"5441-52-1"	"3,5-dimethylcyclohexanol"	645	35.9	448.2	
"54410-69-4"	"(3-methylpentyl)benzene"	697.15	23.61	602	0.437
"54411-01-7"	"1-methyl-2-pentylcyclohexane"	691.81	21.33	640.5	0.456
"5445-24-9"	"1-propylcyclohexanol"	655	33.9	478.8	
"5445-31-8"	"2-methyl-3-nonanone"	656.59	22.36	601.5	0.612
"54462-68-9"	"2,5-dibromohexane, (R*,R**)-(±)-"	684.21	36.82	489.5	0.526
"54462-70-3"	"1,4-dibromo-2,3-dimethylbutane"	684.21	36.82	489.5	0.526
"54484-63-8"	"1,4-dichloro-2-ethylbenzene"	735	33	446	
"5451-52-5"	"decyl formate"	672	19.9	697	0.712
"5451-63-8"	"tetradecyl formate"	736.7	13.6	923	1.13
"5451-75-2"	"octadecyl formate"	774.9	10.1	1155	
"5451-80-9"	"heptyl pentanoate"	667	18.93	717.3	0.699
"5451-85-4"	"octyl pentanoate"	682	17.4	776	0.759
"5451-92-3"	"nonyl formate"	656	21.4	639	0.65
"54518-00-2"	"(2,4-dimethylpentyl)benzene"	714	21.8	648	0.529
"5454-09-1"	"decyl butanoate"	720.2	13.9	867	0.62
"5454-19-3"	"decyl propanoate"	707.6	15.1	809	0.835
"5454-24-0"	"undecyl formate"	700	17.4	749	0.675
"5454-28-4"	"butyl heptanoate"	652	20.47	658.7	0.639
"5454-79-5"	"cis-3-methylcyclohexanol"	625	37.9	374	0.694
"54549-80-3"	"1,1-dimethyl-2-ethylcyclopentane"	607.98	27.99	477.5	0.296
"5458-33-3"	"undecyl propanoate"	720.9	14	867	0.982
"5458-54-8"	"1,2,3,4-tetrahydro-5-isobutylnaphthalene"	760.47	22.87	660.5	0.511
"5458-59-3"	"isopropyl octanoate"	652	20.47	658.7	0.639
"5459-93-8"	"cyclohexylethylamine"	642	31	448.7	
"5461-02-9"	"undecyl butanoate"	732.5	13	925	
"54616-49-8"	"4-ethyl-cis2-hexene"	562.03	26.96	457.5	0.347
"54630-50-1"	"5-methyl-2-heptanol"	601.18	28.35	490.5	0.773
"54630-82-9"	"DL-2,4-dimethyl-1,5-pentanediol"	660.11	35.01	453.5	1.212
"54638-10-7"	"sec-pentyl acetate (R)"	583.38	28.13	441.6	0.443
"5465-09-8"	"3,4-dimethylcyclohexanone"	670	32.5	421.7	
"54653-26-8"	"2,2-dibromopentane"	661.45	42.11	428.5	0.414
"54653-27-9"	"3,3-dibromopentane"	656.98	42.11	428.5	0.414
"54653-28-0"	"3-bromo-trans-2-pentene"	581.59	40.47	358.5	0.331
"54653-29-1"	"2-bromo-cis2-pentene"	584.62	40.47	358.5	0.331
"54653-30-4"	"2-bromo-trans-2-pentene"	584.62	40.47	358.5	0.331
"54676-39-0"	"2-butyl-1,1,3-trimethylcyclohexane"	708.63	19.56	696.5	0.498
"5468-56-4"	"1-ethylpropyl propanoate"	597	26.1	493	0.704
"547-63-7"	"methyl isobutanoate"	540.7	34.32	339	0.364
"547-64-8"	"methyl lactate"	584	44.8	301	0.77
"54774-89-9"	"2-methyl-1-propylnaphthalene"	812.35	24.6	633.5	0.537
"54813-77-3"	"N-ethyl-N-isopropylaniline"	700	27.5	566.1	
"54833-30-6"	"1,1-dicyclohexylpentane"	776.31	16.8	853.5	0.551
"54833-31-7"	"1,5-dicyclohexylpentane"	776.31	16.8	853.5	0.551
"54833-34-0"	"1,3-dicyclohexyl-2-ethylpropane"	776.31	16.8	853.5	0.551
"54837-90-0"	"4-methyl-N-propylaniline"	690	29.85	525.5	0.69
"54877-00-8"	"5-methyl-2,4-hexanediol"	692.59	35.35	447.5	1.178
"54890-00-5"	"1,1-dicyclohexylbutane"	768.14	18.2	797.5	0.512
"54922-86-0"	"ethylene glycol diisobutyl ether"	672	23.4	624.5	
"54934-90-6"	"2,2-dicyclohexylpropane"	766.86	19.79	741.5	0.471
"54934-91-7"	"1,1-dicyclohexylpropane"	766.86	19.79	741.5	0.471
"5497-67-6"	"2,2-dimethyl-4-pentenal"	610	33	358	
"55-21-0"	"benzamide"	824	50.5	346	0.559
"55-63-0"	"nitroglycerine"	680	30	419	1.184
"5502-88-5"	"1-methyl-4-isopropylcyclohexene"	640	26	511	
"55030-20-1"	"1,1-dicyclohexylhexane"	783.63	15.55	909.5	0.589
"55073-86-4"	"2,2,5,5-tetramethyl-3-hexanol"	597.94	24.03	586.5	0.693
"551-88-2"	"3-nitropentane"	611	31	391	0.462
"5510-99-6"	"2,6-di-sec-butylphenol"	765	22.8	704	0.631
"55124-79-3"	"9-hexylheptadecane"	803.12	8.52	1387.1	0.734
"55156-16-6"	"3-methyl-2-pentanone, (±)"	576.61	32.88	368.7	0.362
"552-30-7"	"trimellitic anhydride"	890	40.8	462	0.997
"55255-57-7"	"1-decyl-[1,2,3,4-tetrahydronaphthalene]"	814.16	14.06	996.5	0.73
"55268-63-8"	"1,1-diphenyltetradecane"	842.2	12.2	1414	0.892
"55282-10-5"	"11-(2,2-dimethylpropyl)heneicosane"	839.06	7.25	1566.2	
"55282-12-7"	"3-ethyl-5-(2-ethylbutyl)octadecane"	839.06	7.25	1566.2	
"55282-14-9"	"9-butyldocosane"	839.06	7.25	1566.2	
"55282-15-0"	"7-butyldocosane"	839.06	7.25	1566.2	
"55282-16-1"	"5-butyldocosane"	839.06	7.25	1566.2	
"55282-17-2"	"3-ethyltetracosane"	839.06	7.25	1566.2	
"55319-83-0"	"9-octyldocosane"	891.09	5.95	1805	
"55320-06-4"	"11-decylheneicosane"	904.88	5.69	1864.7	
"55334-08-2"	"1,1-dicyclohexyltetradecane"	840.47	9.16	1357.5	0.731
"55373-86-9"	"7-hexyldocosane"	864.27	6.55	1685.6	
"554-12-1"	"methyl propanoate"	530.6	40.04	282	0.347
"554-14-3"	"2-methylthiophene"	609	49.1	275	0.239
"55429-84-0"	"11-decyltetracosane"	950.88	4.98	2043.8	
"55454-22-3"	"cis-2-hepteN-1-ol"	601	35	341	
"55499-04-2"	"2,2,3-trimethylnonane"	648.03	18.22	690.5	0.461
"555-10-2"	"βphellandrene"	648	28.2	487	0.374
"55505-23-2"	"2,2,3-trimethyl-1-butanol"	596.85	31.88	429.5	0.662
"55505-24-3"	"4-methyl-2-isopropyl-1-pentanol"	615.26	25.35	555.5	0.784
"55505-26-5"	"8-methyl-1-nonanol"	644	22.8	591	0.913
"55517-73-2"	"13-dodecylhexacosane"	1001.41	4.22	2282.6	
"55517-89-0"	"13-undecylpentacosane"	986.42	4.58	2163.2	
"5557-31-3"	"9-octadecene"	746.71	12.65	1037.8	0.755
"556-24-1"	"methyl isopentanoate"	572.95	30.7	400	0.412
"556-52-5"	"(±)-glycidol"	630	59.5	216	0.672
"556-56-9"	"3-iodo-1-propene"	595.81	45.29	272.5	0.202
"556-67-2"	"octamethylcyclotetrasiloxane"	586.5	13.32	970	0.589
"556-69-4"	"octadecamethyloctasiloxane"	688.9	6.24	2466	0.984
"556-82-1"	"3-methyl-2-buteN-1-ol"	573	45.5	258.4	
"5561-99-9"	"cis-11-eicosenoic acid"	966	14	1194.7	
"5563-78-0"	"2-methyl-5-isopropylcyclohexanol, [1R-(1alpha,2alpha,5beta)]"	665	30.9	529.8	
"55665-79-7"	"4-methyl-3-hexenoic acid"	716	29	451.8	
"557-00-6"	"propyl isopentanoate"	599.25	25.13	499	0.472
"557-17-5"	"methyl propyl ether"	476.25	38.01	276	0.277
"557-31-3"	"allyl ethyl ether"	505.58	35.97	313.5	0.323
"557-36-8"	"2-iodooctane"	665.98	28.84	502.5	0.857
"557-59-5"	"tetracosanoic acid"	870	9.1	1392.2	
"557-61-9"	"1-octacosanol"	861.6	8.4	1611.1	
"557-91-5"	"1,1-dibromoethane"	628	60.3	276	0.125
"557-93-7"	"2-bromo-1-propene"	510.32	51.76	247.5	0.253
"557-98-2"	"2-chloro-1-propene"	478	47.1	234	0.152
"55751-54-7"	"2-sec-butylaniline"	690	29.85	525.5	0.69
"55757-34-1"	"1,1,1-trifluorononane"	578.4	20.5	577	0.505
"558-13-4"	"carbon tetrabromide"	724.91	96.31	328.5	0.501
"558-17-8"	"2-iodo-2-methylpropane"	587.9	38.82	336.5	0.179
"558-30-5"	"2,2-dimethyloxirane"	521	46.6	242	0.171
"558-37-2"	"3,3-dimethyl-1-butene"	480	32.9	333	0.228
"558-43-0"	"2-methyl-1,2-propanediol"	611.21	51.09	286.5	1.062
"5582-82-1"	"3-methyl-3-heptanol"	589.67	28.44	491.5	0.738
"55837-18-8"	"2-(4-isobutylphenyl)butyric acid"	713	22.5	600	0.877
"559-40-0"	"octafluorocyclopentene"	465.23	30.23	351.7	0.11
"55930-45-5"	"1,4-diiodopentane"	744.5	33.26	485.5	0.332
"56-23-5"	"carbon tetrachloride"	556.35	45.6	276	0.193
"56-55-3"	"benz[a]anthracene"	979	23.9	690	0.569
"56-81-5"	"glycerol"	850	75	264	0.513
"56-86-0"	"L-glutamic acid"	782	41.3	420	1.184
"56-87-1"	"lysine"	821	35.3	502	1.013
"560-21-4"	"2,3,3-trimethylpentane"	573.5	28.2	455	0.29
"560-22-5"	"3,3,4-trimethyl-1-pentene"	561.62	27.21	447.5	0.268
"560-23-6"	"2,3,3-trimethyl-1-pentene"	565.71	27.13	454.5	0.272
"56021-63-7"	"3,trans-5-dimethylcyclohexene"	597.92	31.63	401.5	0.26
"56039-55-5"	"3,cis-4-dimethylcyclopentene"	557.42	34.32	353.5	0.245
"56065-42-0"	"3,5-dimethyl-3-octanol"	619.15	23.59	597.5	0.788
"56065-43-1"	"4,6-dimethyl-4-octanol"	616.49	23.59	597.5	0.788
"5609-09-6"	"trans-3-hepteN-2-one"	615	35.6	391.3	
"56103-67-4"	"2,6-di-tert-pentyl-4-methylphenol"	760	18.5	809.1	
"56134-53-3"	"1-chlorohexacosane"	865.98	7.11	1540.5	
"56164-20-6"	"tridecyl butanoate"	754.5	11.4	1041	
"5617-41-4"	"heptylcyclohexane"	708.63	19.56	696.5	0.498
"5617-42-5"	"heptylcyclopentane"	679	19.4	648.5	0.515
"562-49-2"	"3,3-dimethylpentane"	536.4	29.5	414	0.268
"56255-50-6"	"2-methyl-1,2-hexanediol"	644.63	35.14	454.5	1.175
"56298-90-9"	"4-methyl-2-heptanol"	600.77	28.35	490.5	0.773
"563-16-6"	"3,3-dimethylhexane"	562	26.5	443	0.32
"563-45-1"	"3-methyl-1-butene"	452.7	35.3	305	0.21
"563-46-2"	"2-methyl-1-butene"	465	34	292	0.23
"563-47-3"	"3-chloro-2-methyl-1-propene"	536.47	39.46	290.5	0.237
"563-52-0"	"3-chloro-1-butene"	524.61	39.61	283.5	0.233
"563-54-2"	"1,2-dichloropropene"	577	43.8	277	0.206
"563-57-5"	"3,3-dichloropropene"	577	43.8	277	0.206
"563-58-6"	"1,1-dichloropropene"	577	43.8	277	0.206
"563-78-0"	"2,3-dimethyl-1-butene"	501	33.2	335	0.233
"563-79-1"	"2,3-dimethyl-2-butene"	528	33.2	335	0.224
"563-80-4"	"methyl isopropyl ketone"	553.4	38	310	0.321
"5634-22-0"	"docosylbenzene"	870.93	7.82	1495.5	
"5634-30-0"	"dodecylcyclopentane"	755.17	14.03	928.5	0.669
"5636-65-7"	"5-methyl-4-hexenoic acid"	716	29	451.8	
"5637-96-7"	"(3-octylundecyl)benzene"	841.84	9.26	1327.5	0.778
"56392-13-3"	"ethylpentadecylamine"	744.2	12.8	1005	0.891
"56399-98-5"	"5-iodo-trans-2-pentene"	624.39	35.94	383.5	0.286
"564-02-3"	"2,2,3-trimethylpentane"	563.5	27.3	436	0.297
"564-03-4"	"3,4,4-trimethyl-1-pentene"	560.14	27.21	447.5	0.268
"564-04-5"	"2,2-dimethyl-3-pentanone"	580.9	30.59	422.5	0.387
"565-59-3"	"2,3-dimethylpentane"	537.3	29.1	393	0.296
"565-60-6"	"3-methyl-2-pentanol"	578	34.7	373	0.576
"565-61-7"	"3-methyl-2-pentanone"	573	33.2	369	0.389
"565-62-8"	"3-methyl-3-penteN-2-one"	595	39.6	342.8	
"565-63-9"	"cis-2-methyl-2-butenoic acid"	676	40.83	322.5	0.389
"565-67-3"	"2-methyl-3-pentanol"	564.4	32.8	378	0.576
"565-69-5"	"ethyl isopropyl ketone"	567	33.2	369	0.389
"565-75-3"	"2,3,4-trimethylpentane"	566.4	27.3	460	0.315
"565-76-4"	"2,3,4-trimethyl-1-pentene"	557.76	25.95	483.5	0.308
"565-77-5"	"2,3,4-trimethyl-2-pentene"	574.12	27.24	459.5	0.297
"565-78-6"	"3,4-dimethyl-2-pentanone"	586.69	30.49	421.5	0.42
"565-80-0"	"2,4-dimethyl-3-pentanone"	576	30.2	416	0.405
"5650-75-9"	"2-methylenepentanoic acid"	696	33	389.4	
"56523-26-3"	"3,7-dimethyl-2,4-octadiene"	646	30	457.7	
"56535-63-8"	"4-bromo-cis2-pentene"	592.38	40.62	351.5	0.326
"56539-66-3"	"3-methoxy-3-methylbutanol"	600	32.4	407.3	0.817
"56578-18-8"	"trans-5-deceN-1-ol"	643	23	527.6	
"5665-74-7"	"DL-2-amino-1-hexanol"	681	34.4	436	0.97
"5668-93-9"	"3-ethylbiphenyl"	801	31.3	593	0.482
"56688-75-6"	"3-methylcyclohexene, (±)"	583.04	36.78	346.5	0.241
"5675-22-9"	"1,4-heptadiene"	556	34.5	347.8	
"5675-51-4"	"1,12-dodecanediol"	745.3	20.93	745.5	1.336
"56800-09-0"	"1,1-dichloro-2-butene"	640	37.98	332	0.302
"5683-44-3"	"3-methyl-2,4-pentanediol"	685.78	39.76	391.5	1.143
"569-41-5"	"1,8-dimethylnaphthalene"	792	31	517	0.395
"56961-86-5"	"1,2,5-trichloro-3-methylbenzene"	737	33.4	447	0.26
"57-10-3"	"hexadecanoic acid"	785	15.1	917	0.983
"57-11-4"	"octadecanoic acid"	804	13.6	1020	1.036
"57-13-6"	"urea"	705	90.5	218	0.62
"57-50-1"	"sucrose"	1086	26.9	761	0.365
"57-55-6"	"1,2-propanediol (propylene glycol)"	626	61	239	1.107
"57-57-8"	"βpropiolactone"	686	69.1	206	0.358
"57-88-5"	"cholesterol"	959	12.5	1350	0.948
"57018-52-7"	"1-tert-butoxy-2-propanol"	567	29.9	433	0.774
"5707-44-8"	"4-ethylbiphenyl"	806	31.3	593	0.427
"57074-37-0"	"cis-4-deceN-1-ol"	643	23	527.6	
"57093-84-2"	"3-ethyl-2-thiapentane"	598.38	31.96	419.5	0.351
"57094-91-4"	"1-iodohentriacontane"	993.86	6.04	1790.5	
"571-58-4"	"1,4-dimethylnaphthalene"	776.78	30.06	521.5	0.443
"571-61-9"	"1,5-dimethylnaphthalene"	773.47	30.06	521.5	0.443
"5715-23-1"	"3,4-dimethylcyclohexanol"	645	35.9	448.2	
"57223-18-4"	"1-noneN-3-yne"	595	30	426.4	
"57233-31-5"	"2,2,4-trimethyl-4-heptanol"	609.52	23.84	592.5	0.724
"57246-89-6"	"rhenium (VII) dioxytrifluoride"	690.26	0	0	
"57253-29-9"	"1-bromo-2-methyl-cis2-butene"	602.84	40.47	358.5	0.331
"57253-30-2"	"1-bromo-2-methyl-trans-2-butene"	602.84	40.47	358.5	0.331