"CASRN"	"Chemical"	"Tc"	"Pc"	"Vc"	"omega"
"38514-03-3"	"4-methyl-1-octanol"	627.23	25.46	552.5	0.846
"38514-04-4"	"5-methyl-1-octanol"	627.23	25.46	552.5	0.846
"38514-05-5"	"6-methyl-1-octanol"	635.39	25.46	552.5	0.846
"38514-13-5"	"4-methyl-3-ethyl-1-pentanol"	605.16	28.35	490.5	0.773
"38514-15-7"	"3-isopropyl-1-heptanol"	642.75	23.34	602.5	0.852
"3855-26-3"	"4-methyl-2-ethylphenol"	719.75	37.87	365.5	0.495
"38552-72-6"	"3-methyl-5-hepteN-2-one"	635	31.6	451.8	
"3864-18-4"	"2,3-dimethylbiphenyl"	802	31.9	593	0.416
"38640-62-9"	"bis(isopropyl)naphthalene"	808.25	21.65	743.3	0.605
"38721-71-0"	"dichlorobenzyl chloride"	737	33.4	447	0.26
"3875-51-2"	"isopropylcyclopentane"	593	30.4	420	0.303
"3875-52-3"	"tert-butylcyclopentane"	622.56	28.2	469.5	0.271
"3876-97-9"	"1,2,8-trimethylnaphthalene"	786.77	26.71	577.5	0.492
"3877-15-4"	"2-thiapentane"	565	39.7	307	0.274
"3877-19-8"	"2-methyl-[1,2,3,4-tetrahydronaphthalene]"	721.27	30.76	492.5	0.379
"38836-25-8"	"4-methyl-2,4-hexanediol"	677.27	35.47	448.5	1.141
"38842-05-6"	"1,2,3,5-tetraethylbenzene"	708	20.7	703	0.594
"38857-76-0"	"1-butyl-[1,2,3,4-tetrahydronaphthalene]"	756.75	22.87	660.5	0.511
"3899-36-3"	"3-methyl-trans-3-hexene"	543.99	29.76	408.5	0.307
"39036-65-2"	"1-methyl-2-propylnaphthalene"	812.35	24.6	633.5	0.537
"3905-64-4"	"2,6-bis(1,1-dimethylethyl)-naphthalene"	823.23	17.58	857.5	0.699
"39093-27-1"	"methylnonylamine"	649.4	21.7	620	0.624
"3913-02-8"	"2-butyl-1-octanol"	712.9	19.7	704.5	0.635
"3913-71-1"	"2-decenal"	670	22	582.3	
"3913-85-7"	"2-decenoic acid"	776	23	603.6	
"39198-07-7"	"methylethylisopropylamine"	538.62	32.73	403.5	0.361
"392-56-3"	"hexafluorobenzene"	516.73	32.73	335	0.395
"3922-24-5"	"1,1,1-trichlorotridecane"	763.82	15.28	899.5	0.672
"3922-25-6"	"1,1,1-trichloroundecane"	738.37	17.86	787.5	0.601
"3922-26-7"	"1,1,1-trichloroheptane"	676.24	25.46	563.5	0.434
"3922-27-8"	"1,1,1-trichloropentane"	635.09	31.21	451.5	0.345
"3922-28-9"	"1,12-dichlorododecane"	733.47	16.85	799.5	0.647
"39220-65-0"	"1-nitropentadecane"	772.46	14.28	957.5	0.872
"39220-66-1"	"1-nitroheptadecane"	792.11	12.42	1069.5	0.893
"39257-08-4"	"2,2,3-trimethylcyclohexanone"	690	29.5	474.6	
"39273-81-9"	"6-methyl-4-hepteN-2-one"	635	31.6	451.8	
"39294-88-7"	"3(4)-methylstyrene, isomers"	658.75	33.7	417	0.334
"3931-89-3"	"phosphorus thiobromide"	729.89	60.19	302.5	0.209
"3937-56-2"	"1,9-nonanediol"	706.66	27.76	577.5	1.321
"3938-95-2"	"ethyl tert-pentanoate"	580.5	27.65	444.8	0.562
"3944-36-3"	"1-(1-methylethoxy)-2-propanol"	562	33.6	400	0.768
"39497-66-0"	"2-isopropyl-1,4-butanediol"	660.11	35.01	453.5	1.212
"3950-21-8"	"meso-2,4-pentanediol"	630.45	44.56	341.5	1.142
"39516-24-0"	"1,3-dodecanediol"	736.85	21.08	739.5	1.318
"39516-65-9"	"1,2-nonadecanediol"	831.78	12.31	1131.5	1.074
"3953-10-4"	"2-ethylbutyl acrylate"	628	24.5	504.8	
"39563-53-6"	"2-bromodecane"	698.43	22.48	657.5	0.611
"39616-19-8"	"1-bromo-cis2-butene"	581.68	45.59	301.5	0.312
"39622-45-2"	"1,3-dimethyl-6-ethylnaphthalene"	811.44	24.24	633.5	0.536
"3965-59-1"	"2,4-dimethyl-1-hexanol"	605.36	28.35	490.5	0.773
"3968-85-2"	"1-phenyl-2-methylbutane"	673.65	26.71	537.5	0.413
"3970-59-0"	"2,4-dimethyl-3-ethyl-3-pentanol"	610.61	26.16	535.5	0.716
"3970-60-3"	"2,2,5-trimethyl-3-hexanol"	586.38	26.16	535.5	0.716
"3970-62-5"	"2,2-dimethyl-3-pentanol"	567.71	31.88	429.5	0.662
"3976-34-9"	"2,6-dimethylbiphenyl"	768.1	30.8	593	0.475
"39761-57-4"	"3,4,4-trimethyl-trans-2-pentene"	573.25	27.41	453.5	0.263
"39761-61-0"	"5,5-dimethyl-cis2-hexene"	561.87	27.27	452.5	0.287
"39761-64-3"	"3,4,4-trimethyl-cis2-pentene"	573.25	27.41	453.5	0.263
"3978-81-2"	"4-tert-butylpyridine"	673	30	469.4	
"39782-38-2"	"isopentyl vinyl ether"	561	29	403.2	
"39782-43-9"	"5,5-dimethyl-trans-2-hexene"	557.73	27.27	452.5	0.287
"3982-64-7"	"1,3-dimethyl-5-propylbenzene"	674.65	25.69	543.5	0.441
"3982-66-9"	"1,2-dimethyl-4-propylbenzene"	684.1	25.69	543.5	0.441
"3982-67-0"	"1,3,5-trimethyl-2-ethylbenzene"	688.22	25.3	543.5	0.441
"3982-91-0"	"phosphorus thiochloride"	638.82	48.57	299.58	0.192
"39825-93-9"	"1,2-eicosanediol"	849.99	11.52	1187.5	1.006
"39884-48-5"	"4-amino-2-butanol"	571.82	41.4	300	0.711
"39924-57-7"	"cis-1-bromo-1-heptene"	630.55	31.96	469.5	0.447
"39924-58-8"	"cis-1-bromo-1-nonene"	666.86	26	581.5	0.536
"39966-95-5"	"1,1,1,2-tetrachlorobutane"	690	34	439.5	
"4001-61-0"	"2,5-dimethylthiophenol"	714.1	38.06	429.5	0.373
"40117-45-1"	"2,2,6,6-tetramethylheptane"	614.86	20	629.5	0.361
"4013-94-9"	"N,N'-diisopropylethylenediamine"	715	31.5	525.3	
"40137-22-2"	"3-methylamino-1,2-propanediol"	715	32.7	349	1.046
"40225-75-0"	"6-methyl-3-octanol"	611.68	25.66	546.5	0.814
"40239-35-8"	"2-methyl-3-tridecanone"	712.65	16.01	825.5	0.759
"40243-75-2"	"2,3-dimethylstyrene"	679.34	29.7	468.5	0.375
"40276-93-5"	"3-methyl-1-hexyne"	542.27	33.26	383.5	0.27
"4028-56-2"	"meso-2,3-dichlorobutane"	592.85	36.29	345.5	0.278
"40289-98-3"	"2-thiaeicosane"	821.75	10.93	1153.5	0.794
"4032-86-4"	"3,3-dimethylheptane"	588.85	24.57	507.4	0.365
"4032-92-2"	"2,4,4-trimethylheptane"	600.3	22.19	541	0.383
"4032-93-3"	"2,3,6-trimethylheptane"	604.1	21.89	560	0.403
"4032-94-4"	"2,4-dimethyloctane"	600	21.7	575	0.435
"40323-88-4"	"2-methyl-5-ethyl thiophene"	650.65	37.13	387.5	0.342
"40324-31-0"	"4-ethylthiacyclohexane"	646.42	34.97	406.5	0.288
"4038-04-4"	"3-ethyl-1-pentene"	530	30.3	398	0.302
"40441-35-8"	"3,4,4-trimethylcyclohexanone"	690	29.5	474.6	
"4048-30-0"	"3-methyl-4-hepteN-3-ol"	615	31	387.5	
"4048-31-1"	"5-methyl-2-hepteN-4-ol"	615	31	387.5	
"4048-32-2"	"3-methyl-6-hepteN-1-ol"	615	31	387.5	
"4048-33-3"	"6-aminohexanol"	665	34.4	436	0.969
"4049-81-4"	"2-methyl-1,5-hexadiene"	556	34.5	347.8	
"4050-45-7"	"trans-2-hexene"	513	31.6	360	0.261
"4057-42-5"	"2,6-dimethyl-2-octene"	616.98	21.85	581.3	0.457
"40575-41-5"	"2-methyl-4-octanol"	609.21	25.66	546.5	0.814
"40575-42-6"	"1-octeN-4-ol"	615	31	387.5	
"40589-14-8"	"2-methyl-1-nonanol"	648.77	23.16	608.5	0.883
"406-82-6"	"1,1,1-trifluoropentane"	464.5	28.5	357	0.383
"4062-60-6"	"N,N'-di-tert-butylethylenediamine"	625	21.6	686	0.628
"40646-07-9"	"1,4-heptanediol"	702.65	34.68	459.5	1.245
"40649-36-3"	"4-propylcyclohexanone"	690	29.5	474.6	
"4067-16-7"	"pentaethylenehexamine"	820	21.1	912	1.387
"407-06-7"	"1-fluoro-3-methylbutane"	490.84	33.22	327.5	0.298
"407-79-4"	"5-fluoro-1-pentene"	504.5	34.56	314.5	0.306
"407-96-5"	"1,1-difluoroheptane"	556.1	24.5	453	0.433
"40723-63-5"	"1,1,2,2-tetrafluoropropane"	457.26	36.33	258.5	0.277
"4074-43-5"	"3-butylphenol"	742.23	34.36	421.5	0.542
"4074-46-8"	"4-methyl-2-propylphenol"	780.8	33.76	421.5	0.541
"40775-09-5"	"heneicosylbenzene"	860.93	8.26	1439.5	0.733
"408-32-2"	"thiacycloundecane"	784.51	30.16	535.5	0.299
"408-38-8"	"1-fluorohexadecane"	714.6	12.3	938	0.719
"40813-84-1"	"5-thiadodecane"	717.91	19.63	705.5	0.592
"40853-53-0"	"2-isopropyl-5-methyl-2-hexeN-1-ol"	643	23	527.6	
"40853-56-3"	"acetic acid 2-isopropyl-5-methyl-2-hexeN-1-yl ester"	816	20	723.2	
"4088-22-6"	"N-methyldioctadecylamine"	1022.31	4.45	2142.5	
"4088-36-2"	"ethyloctylamine"	642.4	21.3	620	0.616
"4088-37-3"	"diethyloctylamine"	645.88	18.39	745.5	0.648
"4088-60-2"	"cis-2-buteN-1-ol"	559	52.2	223.2	
"4089-71-8"	"3-methyl-1,6-hexanediol"	627.98	34.68	459.5	1.245
"409-02-9"	"methylheptenone"	635	31.6	451.8	
"4095-22-1"	"2-isopropylthiophene"	640.96	37.82	387.5	0.342
"4098-71-9"	"isophorone diisocyanate"	765	25.2	667	0.666
"41004-19-7"	"1-iodo-3-methyl-2-butene"	628.8	36.16	384.5	0.261
"4101-68-2"	"1,10-dibromodecane"	741.82	24.22	713.5	0.701
"4104-01-2"	"3-chloro-2-methyl-1-pentene"	583.61	31.6	400.5	0.341
"41051-72-3"	"2-methyl-1,2-butanediol"	617.54	44.74	342.5	1.102
"41065-91-2"	"3-ethylhexanoic acid"	692	26.9	494	0.779
"41065-95-6"	"3-ethyl-1-hexanol"	608.64	28.11	496.5	0.806
"4107-98-6"	"N,N-diisopropylaniline"	710	25	626.9	
"4109-96-0"	"silane, dichloro"	459	45.9	237	0.0985
"4110-44-5"	"3,3-dimethyloctane"	612.1	22.19	557	0.404
"4110-50-3"	"3-thiahexane"	584	33.8	369.5	0.329
"4113-08-0"	"hexadecyl formate"	757.1	11.7	1039	
"41135-45-9"	"1,2,2-trichlorobutane"	663.82	34.85	395.5	0.3
"4124-88-3"	"3-nonenoic acid"	756	25	545.9	
"4127-45-1"	"1,1,2-trimethylcyclopropane"	504.34	36.64	325.5	0.222
"4127-47-3"	"1,1,2,2-tetramethylcyclopropane"	530	33	375.9	
"4128-31-8"	"2-octanol, (±)"	600.92	28.49	488	0.733
"4130-42-1"	"2,6-di-tert-butyl-4-ethylphenol"	750	20	769.3	
"4132-72-3"	"1,4-dimethyl-2-isopropylbenzene"	670.78	25.9	537.5	0.411
"4132-77-8"	"1,2-dimethyl-4-isopropylbenzene"	678.79	25.9	537.5	0.411
"41446-63-3"	"trans-7-tetradecene"	699.45	16.86	800	0.622
"4146-04-7"	"DL-2-amino-1-pentanol"	626.41	37.9	368	0.841
"41519-23-7"	"cis-3-hexenyl isobutyrate"	650	23.5	540.2	
"41653-96-7"	"5-methyl-2-hexenoic acid"	716	29	451.8	
"4166-46-5"	"2,3-dimethyl-3-hexanol"	589.22	28.69	485.5	0.706
"4167-74-2"	"4-isobutylphenol"	733.21	34.68	415.5	0.51
"4167-75-3"	"2-isobutylphenol"	733	34.68	415.5	0.51
"4168-40-5"	"1,1-dichlorotetradecane"	758.8	14.48	911.5	0.712
"41692-47-1"	"ethyl 3-methylhexanoate"	629	23.3	547	0.596
"4170-30-3"	"crotonaldehyde"	550.5	45	239.9	0.296
"4175-54-6"	"1,2,3,4-tetrahydro-1,4-dimethylnaphthalene"	737.62	27.73	548.5	0.424
"41761-11-9"	"2,5-dichlorohexane, (R*,S*)-"	633.09	28.91	463.5	0.397
"41761-12-0"	"2,5-dichlorohexane, (R*,R*)-(±)-"	633.09	28.91	463.5	0.397
"41781-17-3"	"1-amino-2,2-dimethylbutane"	569.55	33.88	389.5	0.387
"4181-95-7"	"tetracontane"	1016.35	3.91	2402	
"41851-34-7"	"1,2-dicyclohexylpropane"	766.86	19.79	741.5	0.471
"41851-35-8"	"1,3-dicyclohexylbutane"	768.14	18.2	797.5	0.512
"41909-29-9"	"3-fluoropentane"	490.09	33.22	327.5	0.298
"41927-66-6"	"eicosyl butanoate"	810.7	7.6	1447	
"41947-84-6"	"3-thiaheneicosane"	832.33	10.27	1209.5	0.795
"420-12-2"	"ethylene sulfide"	547	67.8	167	0.161
"420-26-8"	"2-fluoropropane"	415.68	42	215.5	0.204
"420-45-1"	"2,2-difluoropropane"	428.96	40.21	228.5	0.202
"420-46-2"	"1,1,1-trifluoroethane"	345.88	37.64	195	0.261
"4200-95-7"	"heptadecylamine"	767.8	11.9	1005	0.869
"42007-73-8"	"2,7-dimethyl-2-octanol"	644.39	23.59	597.5	0.788
"42027-23-6"	"2,3-pentanediol"	633.16	44.22	342.9	1.144
"42061-72-3"	"4-isobutylcyclohexanone"	710	27.5	519.5	
"42067-48-1"	"4-methyl-3-ethyl-cis2-pentene"	570.01	27.1	458.5	0.322
"42067-49-2"	"4-methyl-3-ethyl-trans-2-pentene"	567.52	27.1	458.5	0.322
"42075-32-1"	"(R,R)-(-)-2,4-pentanediol"	633.16	44.22	342.9	1.144
"4209-22-7"	"1-bromotriacontane"	933.17	6.16	1777.5	
"4209-90-9"	"2,2-dimethyl-3-hexanol"	586.35	28.69	485.5	0.706
"4209-91-0"	"3,5-dimethyl-3-hexanol"	580.75	28.69	485.5	0.706
"421-04-5"	"1-chloro-1,1,2-trifluoroethane"	428.95	40.93	239.5	0.263
"421-07-8"	"1,1,1-trifluoropropane"	392	34.5	249	0.301
"421-48-7"	"1,1,1,2-tetrafluoropropane"	414.81	36.33	258.5	0.277
"42101-38-2"	"3,3-dichloro-2-methyl-1-butene"	660	35	376	
"42131-85-1"	"2-chloro-1-pentene"	547.93	35.1	346.5	0.281
"42131-89-5"	"2,2-dichlorohexane"	633.09	28.91	463.5	0.397
"42131-98-6"	"2-chloro-cis2-pentene"	556.15	35.52	345.5	0.271
"42132-00-3"	"2-chloro-trans-2-pentene"	556.15	35.52	345.5	0.271
"4215-86-5"	"(4-methylpentyl)benzene"	697.15	23.61	602	0.437
"42152-47-6"	"7-methyl-1,6-octadiene"	616	32.8	400.7	
"4218-48-8"	"1-ethyl-4-isopropylbenzene"	672.21	26.3	537.5	0.412
"42185-47-7"	"2,3,6-trimethylcyclohexanone"	690	29.5	474.6	
"4219-24-3"	"3-hexenoic acid"	696	33	389.4	
"42195-92-6"	"2,3-dimethylcyclohexylamine"	642	31	448.7	
"42202-42-6"	"2-nitro-3-methylpentane"	634.96	32.06	441.5	0.491
"42205-08-3"	"1,2,3-triethylbenzene"	684.37	23.36	599.5	0.479
"4221-99-2"	"(S)-(+)-2-butanol"	538.22	42.19	272.4	0.593
"42217-02-7"	"1-chloroeicosane"	800.64	9.92	1204.5	0.782
"42217-03-8"	"1-chlorodocosane"	821.75	8.82	1316.5	0.758
"42245-37-4"	"1-amino-3-methylpentane"	580.19	33.45	394.5	0.451
"42246-24-2"	"rhenium (VII) trioxyfluoride"	655.31	0	0	
"4229-91-8"	"2-propylfuran"	580	38.7	338.2	
"42296-74-2"	"hexadiene"	526.51	34.94	332.4	0.25
"4230-97-1"	"allyl octanoate"	672	22.5	578.4	
"42328-76-7"	"2,4-dimethyl-2-hexanol"	578.98	28.69	485.5	0.706
"42398-73-2"	"6-methylisoquinoline"	778.59	37.05	463	0.428
"42425-07-0"	"thiacycloheneicosane"	872.75	15.61	1015.5	0.44
"4245-35-6"	"isoamyl acrylate"	616	26	470.5	
"42474-20-4"	"1,3-dibromopentane"	680.24	41.52	433.5	0.48
"42474-21-5"	"1,2-dibromoheptane"	700.05	32.88	545.5	0.571
"4253-89-8"	"2,5-dimethyl-3,4-diathiahexane"	673	27.5	479.5	0.37
"4254-14-2"	"(R)-(-)-1,2-propanediol"	642	60.1	228	1.13
"4254-15-3"	"(S)-(+)-1,2-propanediol"	642	60.1	228	1.13
"4255-62-3"	"4,4-dimethylcyclohexanone"	670	32.5	421.7	
"42551-55-3"	"3-amino-2-butanol"	571.82	41.4	300	0.711
"42569-16-4"	"1-methyl-2-buteN-1-ol, (+,-)"	573	45.5	258.4	
"4258-93-9"	"1-methyl-1-propylcyclohexane"	667	25.7	534	0.274
"4259-00-1"	"1,1,2-trimethylcyclopentane"	584.65	31.07	421.5	0.252
"42599-17-7"	"trans-1-iodo-1-octene"	692.75	26.14	551.5	0.419
"4265-25-2"	"2-methylbenzofuran"	697	36.4	407	0.375
"4265-97-8"	"heptyl octanoate"	708	15.8	849.4	
"4271-27-6"	"diethyldodecylamine"	700.59	13.56	969.5	0.771
"4272-02-0"	"1,4-undecanediol"	749.94	23.07	683.5	1.317
"4276-09-9"	"(R)-(-)-2-amino-3-methyl-1-butanol"	626.41	37.9	368	0.841
"4276-49-7"	"1-bromoeicosane"	816.19	10.62	1217.5	0.841
"4276-50-0"	"1-bromoheneicosane"	826.47	9.98	1273.5	0.831
"4276-51-1"	"1-bromohexacosane"	881.99	7.53	1553.5	
"42764-74-9"	"2-methyl-1-heptadecene"	745.42	11.9	1025.5	0.72
"42775-75-7"	"5-ethyl-1,2,3,4-tetrahydronaphthalene"	737.62	27.73	548.5	0.424
"42789-13-9"	"1,2-nonanediol"	684.73	27.99	571.5	1.293
"4279-22-5"	"2,2-dichlorobutane"	578.17	36.42	346.5	0.247
"4282-40-0"	"1-iodoheptane"	646.56	32.06	446.5	0.816
"4282-42-2"	"1-iodononane"	683.84	26.08	558.5	0.896
"4282-44-4"	"1-iodoundecane"	715.99	21.63	670.5	0.964
"4283-80-1"	"2-bromo-2-methylpentane"	595.92	34.36	422.5	0.341
"4283-83-4"	"3-bromo-2-methylpentane"	594.59	34.24	421.5	0.373
"42841-80-5"	"4-thianonane"	660.72	25.79	537.5	0.465
"42856-62-2"	"2-methyl-1,5-pentanediol"	652.71	39.36	397.5	1.179
"42875-41-2"	"tridecyl formate"	725.4	14.7	865	0.945
"4291-79-6"	"1-methyl-2-propylcyclohexane"	667	25.7	534	0.274
"4291-80-9"	"1-methyl-3-propylcyclohexane"	667	25.7	534	0.274
"4291-81-0"	"1-methyl-4-propylcyclohexane"	667	25.7	534	0.274
"4291-98-9"	"1-pentylcyclopentene"	647.47	25.98	522.5	0.403
"4291-99-0"	"1-hexylcyclopentene"	665.48	23.61	578.5	0.447
"42910-16-7"	"triundecylamine"	880.67	5.29	1921.5	
"4292-00-6"	"1-heptylcyclopentene"	680.78	21.55	634.5	0.49
"4292-04-0"	"1-isopropyl-1-cyclohexene"	620	28.6	451.8	
"4292-19-7"	"1-iodododecane"	730.57	19.82	726.5	0.992
"4292-75-5"	"hexylcyclohexane"	691.81	21.33	640.5	0.456
"4292-92-6"	"pentylcyclohexane"	674.01	23.36	584.5	0.413
"430-44-4"	"2-fluoro-1-butene"	462.01	39.06	259.5	0.237
"430-53-5"	"1,1-dichloro-2-fluoroethane"	473.24	43.23	257.5	0.272
"430-57-9"	"1,2-dichloro-1-fluoroethane"	538.33	43.23	258	0.272
"430-61-5"	"1,1-difluoropropane"	430	37.6	236	0.276
"430-66-0"	"1,1,2-trifluoroethane"	429.8	52.41	179	0.326
"431-06-1"	"1,2-dichloro-1,2-difluoroethane"	487.57	41.2	269.5	0.295
"431-07-2"	"1-chloro-1,2,2-trifluoroethane"	428.68	40.78	238.5	0.295
"431-31-2"	"1,1,1,2,3-pentafluoropropane"	403.84	34.44	276.5	0.33
"431-63-0"	"1,1,1,2,3,3-hexafluoropropane"	412.38	34.12	270	0.369
"431-89-0"	"heptafluoropropane"	374.83	29.12	274	0.355
"43197-78-0"	"3-chloro-3-methylhexane"	621.08	26.93	476.5	0.418
"4325-48-8"	"2-chloro-2-methylpentane"	575.46	30.46	409.5	0.283
"4325-49-9"	"2-chloro-2-methylheptane"	642.41	24.43	532.5	0.462
"4325-82-0"	"1-methyl-2-penteN-1-ol"	587	39	303.8	
"4340-76-5"	"2-eicosanol"	791.2	11.4	1153	0.899
"4351-54-6"	"cyclohexyl formate"	645	35.2	384	0.368
"4358-59-2"	"methyl cis-2-butenoate"	555.5	36.8	323	0.355
"4358-75-2"	"2-amino-2,3-dimethylbutane"	556.88	34.2	383.5	0.356
"4371-48-6"	"2-methyl-3-isopropylphenol"	785.78	34.08	415.5	0.509
"4375-96-6"	"2-iodo-1-propene"	597.58	45.59	273.5	0.184
"4376-23-2"	"trans-3-hexeN-2-one"	595	39.6	342.8	
"4385-04-0"	"dimethylhexylamine"	608.7	25.5	510	0.323
"4390-04-9"	"2,2,4,4,6,8,8-heptamethylnonane"	692	15.7	969.2	0.548
"4394-85-8"	"4-morpholinecarboxaldehyde"	762	39.83	335	0.393
"4396-19-4"	"2,3-dithiaheptane"	657.5	33.1	418.8	0.358
"4398-65-6"	"2-chloro-2-methylhexane"	621.08	26.93	476.5	0.418
"4402-32-8"	"1-diethylamino-2-propanol"	716	33	468.3	
"4404-98-2"	"4-amino-4-methyl-2-pentanol"	681	34.4	436	0.97
"4410-99-5"	"2-phenylethanethiol"	725.28	38.3	429.5	0.374
"4412-16-2"	"2-dodecenoic acid"	816	21	688.7	
"4427-56-9"	"4-methyl-2-isopropylphenol"	719.35	34.08	415.5	0.509
"4432-77-3"	"ethyl-tert-butylamine"	517.03	32.21	395.5	0.369
"4433-10-7"	"2,4-dimethylbiphenyl"	792.44	31.36	593	0.458
"4433-11-8"	"3,4-dimethylbiphenyl"	801.2	31.9	593	0.454
"4434-66-6"	"1-bromononadecane"	805.31	11.31	1161.5	0.843
"4435-50-1"	"1,2,3-butanetriol"	719	58.3	305	1.75
"4439-24-1"	"2-(2-methylpropoxy)ethanol"	600	32.4	407.3	0.817
"4442-85-7"	"cyclohexaneethylamine"	642	31	448.7	
"4443-55-4"	"eicosylcyclohexane"	853.38	8.12	1424.5	0.708
"4443-57-6"	"3-cyclohexyleicosane"	853.38	8.12	1424.5	0.708
"4443-61-2"	"9-cyclohexyleicosane"	853.38	8.12	1424.5	0.708
"4444-68-2"	"diethylbutylamine"	577.33	26.35	521.5	0.481
"4445-06-1"	"octadecylcyclohexane"	833.93	9.09	1312.5	0.742
"4445-07-2"	"octadecylbenzene"	834	11.6	1250	0.951
"4445-08-3"	"9-(4-tolyl)octadecane"	841.84	9.26	1327.5	0.778
"4454-05-1"	"3,4-dihydro-2-methoxy-2H-pyran"	599	39.3	331	0.367
"4455-26-9"	"methyldioctylamine"	744.03	12.35	1009.1	0.818
"4457-00-5"	"hexylcyclopentane"	667.67	22.81	592.5	0.442
"4457-71-0"	"3-methyl-1,5-pentanediol"	682	38.97	403.5	1.214
"4457-72-1"	"1,5-dibromo-3-methylpentane"	684.21	36.82	489.5	0.526
"4458-31-5"	"diethylpropylamine"	553.45	29.16	465.5	0.437
"4458-32-6"	"methylethylpropylamine"	534.36	32.43	409.5	0.392
"4461-41-0"	"2-chloro-2-butene"	532.24	39.67	288.8	0.242
"4461-48-7"	"4-methyl-2-pentene"	506.59	32.05	352.3	0.25
"4468-42-2"	"(1-ethylbutyl)benzene"	697.15	23.61	602	0.437
"4468-93-3"	"2-(2-ethylbutoxy)ethanol"	636	26.4	525.9	
"44745-29-1"	"(S)-2-heptylamine"	565.35	29.19	459.3	0.409
"4481-30-5"	"2-phenyl-3-methylbutane"	665.6	26.93	531.5	0.383
"44829-76-7"	"5-methyl-1-hepteN-3-one"	635	31.6	451.8	
"4485-09-0"	"4-nonanone"	629.65	24.67	533.8	0.541
"4485-13-6"	"4-propyl-3-heptene"	616.98	21.85	581.3	0.457
"4485-16-9"	"4-methyl-3-heptene"	564.74	26.94	458.8	0.328
"4485-77-2"	"10,11-dithiaeicosane"	802.3	11.79	1151.5	0.832
"44855-57-4"	"2-octanamine, (±)"	601.45	26.52	517.6	0.5
"44914-03-6"	"2-methylbutyl acrylate"	616	26	470.5	
"44976-81-0"	"N,N-diisopropylisobutylamine"	644.56	21.59	624.1	0.585
"44979-90-0"	"diethylhexylamine"	617.59	21.84	633.5	0.568
"4500-58-7"	"o-ethylthiophenol"	722.65	38.77	429.5	0.374
"45124-35-4"	"diethylnonylamine"	661.69	16.96	801.5	0.684
"4516-69-2"	"1,1,3-trimethylcyclopentane"	571.3	31.07	421.5	0.252
"4516-90-9"	"2-methyl-3-buteN-1-ol"	573	45.5	258.4	
"45165-81-9"	"methyltridecylamine"	710.2	15.6	840	0.755
"452-86-8"	"1,2-dihydroxy-4-methylbenzene"	791.27	61.32	187.5	0.565
"45223-18-5"	"1,16-dibromohexadecane"	808.08	14.7	1049.5	0.889
"45275-74-9"	"dimethyleicosylamine"	802.46	9.23	1305.5	0.79
"45313-33-5"	"hexatriacontylamine"	1047.57	4.69	2080.5	
"45324-58-1"	"trieicosylamine"	1343.51	3.02	3280.2	
"4534-74-1"	"4-ethylcyclohexanol"	645	35.9	448.2	
"4535-61-9"	"(Z)-5-hepteN-2-one"	615	35.6	391.3	
"4535-66-4"	"N,N-diisobutylethanolamine"	770	27	601.4	
"4536-23-6"	"2-methylhexanoic acid, (±)"	666	31.1	454	0.696
"4537-13-7"	"(1-methylnonyl)benzene"	738.32	16.96	852.3	0.659
"4543-96-8"	"N,N,N'-trimethyl-1,3-propanediamine"	663	38.1	408.4	0.65
"4549-31-9"	"1,7-dibromoheptane"	700.05	32.88	545.5	0.571
"4549-32-0"	"1,8-dibromooctane"	716.02	29.54	601.5	0.616
"4549-33-1"	"1,9-dibromononane"	729.44	26.68	657.5	0.659
"4549-74-0"	"3-methyl-1,3-pentadiene"	526.51	34.94	332.4	0.25
"4553-62-2"	"methylglutaronitrile"	742	28.8	404	0.638
"4588-18-5"	"2-methyl-1-octene"	593	23.8	508	0.406
"460-12-8"	"biacetylene"	478.02	58.63	183.5	0.1
"460-13-9"	"1-fluoropropane"	422	41.57	221.5	0.227
"460-19-5"	"cyanogen"	399.9	63.03	144.52	0.312
"460-34-4"	"1,1,1-trifluorobutane"	425.8	31.4	302	0.368