"CASRN"	"Chemical"	"Tc"	"Pc"	"Vc"	"omega"
"77-73-6"	"1,3-dicyclopentadiene"	660	30.6	445	0.288
"77-74-7"	"3-methyl-3-pentanol"	575.6	35.2	380	0.432
"77-78-1"	"dimethyl sulfate"	716	70.1	293	0.439
"77-84-9"	"2-methyl-2-ethyl-1,3-propanediol"	658.33	39.51	398.5	1.14
"77-92-9"	"citric acid"	822	37.98	419.7	1.845
"77-99-6"	"trimethylolpropane"	709	39.1	416	1.543
"7704-34-9"	"sulfur"	1314	117.55	158	0.2463
"7705-07-9"	"titanium (III) chloride"	1971.57	177.2	242.36	
"7705-08-0"	"ferric chloride"	948.15	43	302.5	0.1741
"77053-92-0"	"5-methyl-2-hexenol"	601	35	341	
"7712-60-9"	"5-chloro-2-methyl-2-pentene"	583.61	31.6	400.5	0.341
"7713-69-1"	"methyl-sec-butylamine"	519.9	36.2	341	0.397
"7719-09-7"	"thionyl chloride"	567	44.3	208	0.0946
"7719-12-2"	"phosphorus (III) chloride"	563.15	56.7	260	0.2344
"7719-76-8"	"N-nonaoctacontane"	1195.66	1.95	5327.3	
"7719-79-1"	"N-dopentacontane"	1083.08	3.43	3118.4	
"7719-80-4"	"N-tripentacontane"	1088.34	3.39	3178.1	
"7719-82-6"	"N-hexapentacontane"	1100.95	3.27	3357.2	
"7719-83-7"	"N-dohexacontane"	1125.03	3.03	3715.4	
"7719-84-8"	"N-trihexacontane"	1128.17	2.99	3775.1	
"7719-85-9"	"N-octaheptacontane"	1171.87	2.39	4670.6	
"7719-86-0"	"N-nonaheptacontane"	1174.98	2.35	4730.3	
"7719-87-1"	"N-tetrahexacontane"	1131.3	2.95	3834.8	
"7719-88-2"	"N-pentahexacontane"	1134.43	2.91	3894.5	
"7719-89-3"	"N-hexahexacontane"	1138.6	2.87	3954.2	
"7719-90-6"	"N-heptahexacontane"	1141.73	2.83	4013.9	
"7719-91-7"	"N-octahexacontane"	1144.85	2.79	4073.6	
"7719-92-8"	"N-nonahexacontane"	1147.98	2.75	4133.3	
"7719-93-9"	"N-heptacontane"	1151.1	2.71	4193	
"7719-94-0"	"N-heptaheptacontane"	1169.79	2.43	4610.9	
"7719-95-1"	"N-dooctacontane"	1181.19	2.23	4909.4	
"7719-96-2"	"N-pentaoctacontane"	1187.4	2.11	5088.5	
"7719-97-3"	"N-hennonacontane"	1199.79	1.87	5446.7	
"7720-83-4"	"titanium (IV) iodide"	1040	60.88	505	
"7721-01-9"	"tantalum (V) chloride"	767	0	402	
"7722-84-1"	"hydrogen peroxide"	730.15	217	77.7	0.3582
"7723-14-0"	"phosphorus (black)"	994	83.29	297.62	0.032
"7726-95-6"	"bromine"	584.15	103.35	135	0.1189
"7727-15-3"	"aluminum bromide"	763	28.9	310	0.399
"7727-18-6"	"vanadium oxytrichloride"	636	37.4	290	0.1305
"7727-37-9"	"nitrogen"	126.2	34.6	89.21	0.0377
"7731-28-4"	"cis-4-methylcyclohexanol"	622	37.9	374	0.688
"7731-29-5"	"trans-4-methylcyclohexanol"	622	37.9	374	0.694
"7732-18-5"	"water"	647.13	220.55	55.95	0.3449
"7735-42-4"	"1,4-hexadecanediol"	820.77	15.23	963.5	1.232
"7735-43-5"	"1,20-eicosanediol"	873.91	11.46	1193.5	0.993
"77437-98-0"	"2-methyl-6-hepteN-2-ol"	615	31	387.5	
"7756-94-7"	"isobutene, trimer"	656.77	18.72	694.8	0.548
"7758-02-3"	"potassium bromide"	3520	115.52	314	0.596
"7758-89-6"	"cuprous chloride"	2435	236.79	256.51	1.664
"7758-94-3"	"ferrous chloride"	2010	87.2	302.5	0.5271
"7758-95-4"	"lead chloride"	1998.62	164.81	302.5	0.507
"7763-13-5"	"N-hexanonacontane"	1209.07	1.67	5745.2	
"7766-48-5"	"5-iodo-1-pentene"	640.23	35.52	384.5	0.296
"7766-50-9"	"11-bromo-1-undecene"	699.36	21.57	693.5	0.621
"7766-51-0"	"4-iodo-1-butene"	619.52	39.96	328.5	0.252
"777-22-0"	"(1-methylheptyl)benzene"	712.89	19.53	709.4	0.565
"7772-99-8"	"stannous chloride"	1459.53	120.35	302.5	0.414
"7773-01-5"	"manganese (II) chloride"	2382.98	196.5	302.5	0.56
"7774-29-0"	"mercuric iodide"	1072	100	268.92	0.189
"7778-87-2"	"propyl heptanoate"	637	22	600	0.579
"7779-80-8"	"isobutyl heptanoate"	652	20.47	658.7	0.639
"778-22-3"	"2,2-diphenylpropane"	788.27	25.59	648.5	0.43
"778-66-5"	"1,1-diphenyl-1-propene"	796.49	26.6	640.5	0.465
"7782-39-0"	"deuterium"	38.35	16.64	60.26	-0.1449
"7782-40-3"	"diamond"	6810	2230	18.8	0.3268
"7782-41-4"	"fluorine"	144.12	51.72	66.54	0.053
"7782-42-5"	"graphite"	6810	2230	18.8	0.3268
"7782-44-7"	"oxygen"	154.58	50.43	73.4	0.0222
"7782-49-2"	"selenium (vitreous)"	1766	272	62.3	0.227
"7782-50-5"	"chlorine"	417.15	77.11	123.75	0.069
"7782-65-2"	"germane"	312.2	49.5	147	0.1506
"7783-06-4"	"hydrogen sulfide"	373.53	89.63	98.5	0.0942
"7783-07-5"	"hydrogen selenide"	411.15	89.2	120	0.0542
"7783-09-7"	"hydrogen telluride"	438.04	71.93	138.73	0.289
"7783-26-8"	"trisilane"	525.15	33.7	354.94	0.07
"7783-29-1"	"tetrasilane"	599.3	29.68	460.01	0.037
"7783-41-7"	"fluorine oxide"	215	49.5	97.6	0.075
"7783-42-8"	"thionyl fluoride"	371.25	59.28	142.65	0.218
"7783-43-9"	"selenium oxyfluoride"	635.5	96.7	143.15	
"7783-44-0"	"difluorine dioxide"	338.24	71	103.77	
"7783-46-2"	"lead fluoride"	2550.73	210.33	302.5	0.58
"7783-47-3"	"tin (II) fluoride"	1835.05	250.18	159.77	
"7783-49-5"	"zinc fluoride"	2882.98	237.73	302.5	0.616
"7783-54-2"	"nitrogen trifluoride"	234	44.61	118.75	0.12
"7783-55-3"	"phosphorus (III) fluoride"	271.2	43.3	138.73	
"7783-58-6"	"germanium (IV) fluoride"	365.04	47.75	166.52	
"7783-60-0"	"sulfur tetrafluoride"	364	52.22	158.77	0.307
"7783-61-1"	"silicon tetrafluoride"	259	37.2	202	0.3858
"7783-62-2"	"tin (IV) fluoride"	1539.6	171.98	195	
"7783-64-4"	"zirconium (IV) fluoride"	1553.38	225.35	150.15	
"7783-66-6"	"iodine pentafluoride"	594.33	72.52	178.52	
"7783-68-8"	"niobium (V) fluoride"	737	62.8	155	0.241
"7783-70-2"	"antimony (V) fluoride"	653.38	0	0	
"7783-71-3"	"tantalum (V) fluoride"	787.96	0	0	
"7783-72-4"	"vanadium (V) fluoride"	499.01	0	0	
"7783-77-9"	"molybdenum fluoride"	473	47.5	226	0.189
"7783-79-1"	"selenium hexafluoride"	345.5	44.75	187.74	0.133
"7783-80-4"	"tellurium hexafluoride"	356	34.47	251.23	0.057
"7783-81-5"	"uranium fluoride"	505.8	46.6	250	0.318
"7783-82-6"	"tungsten fluoride"	444	43.4	233	0.163
"7783-90-6"	"silver (I) chloride"	2992.1	100.28	744.26	0.36
"7783-96-2"	"silver (I) iodide"	2897.64	97.12	744.26	0.351
"7784-18-1"	"aluminum fluoride"	2948.13	98.81	744.26	0.356
"7784-23-8"	"aluminum iodide"	983	35.95	408	0.349
"7784-33-0"	"arsenic (III) bromide"	789.01	66.4	270.69	0.298
"7784-34-1"	"arsenic trichloride"	654	59.12	252	0.22
"7784-35-2"	"arsenic trifluoride"	530.21	87.81	137.55	0.363
"7784-36-3"	"arsenic pentafluoride"	357.73	41.13	198.14	0.106
"7784-42-1"	"arsine"	373	65.5	97.8	0.0105
"7784-45-4"	"arsenic triiodide"	1101.22	99.06	277.31	0.357
"7785-26-4"	"α-pinene, (-)"	647	27.8	505.3	0.341
"7785-70-8"	"(+)-a-pinene"	647	27.8	505.3	0.341
"7786-29-0"	"2-methyloctanal"	640	23.3	527	0.592
"7786-30-3"	"magnesium chloride"	2754.32	227.12	302.5	0.602
"77866-58-1"	"trans-4-propylcyclohexanol"	655	33.9	478.8	
"7787-46-4"	"beryllium bromide"	1216.86	100.34	302.5	0.361
"7787-47-5"	"beryllium chloride"	1238.03	102.09	302.5	0.366
"7787-53-3"	"beryllium iodide"	1238.03	102.09	302.5	0.366
"7787-58-8"	"bismuth tribromide"	1220	98.6	301	0.288
"7787-60-2"	"bismuth trichloride"	1179	120	261	0.304
"7787-61-3"	"bismuth fluoride"	1971.01	385.21	111.46	
"7787-62-4"	"bismuth pentafluoride"	470	57.16	187.31	0.504
"7787-64-6"	"bismuth triiodide"	1404	112.55	271.73	
"7787-69-1"	"cesium bromide"	2562.13	211.27	302.5	0.581
"7787-70-4"	"cuprous bromide"	2651.71	218.66	302.5	0.591
"7787-71-5"	"bromine trifluoride"	649.89	112.47	125.87	
"7789-17-5"	"cesium iodide"	2529.56	208.59	302.5	0.577
"7789-20-0"	"deuterium oxide"	643.89	219.41	56.3	0.3677
"7789-21-1"	"fluorosulfonic acid"	715	84.17	180	
"7789-23-3"	"potassium fluoride"	2891.12	238.4	302.5	0.617
"7789-24-4"	"lithium fluoride"	3182.65	262.44	302.5	0.645
"7789-25-5"	"nitrosyl fluoride"	352.67	112.78	71.24	0.405
"7789-26-6"	"fluorine nitrate"	337.9	55.74	132.06	
"7789-30-2"	"bromine pentafluoride"	492.46	66.97	160.17	
"7789-39-1"	"rubidium bromide"	2646.82	218.26	302.5	0.591
"7789-40-4"	"thallous bromide"	1778.75	146.68	302.5	0.473
"7789-47-1"	"mercuric bromide"	1012	79.53	302.5	0.292
"7789-54-0"	"tellurium dibromide"	1032.59	179.77	125.12	
"7789-57-3"	"silane, tribromo"	610	47.02	305	0.222
"7789-59-5"	"phosphorus (V) oxybromide"	712.7	57.99	267.73	
"7789-60-8"	"phosphorus tribromide"	711	53.99	300	0.264
"7789-61-9"	"antimony tribromide"	904	73.62	300	0.269
"7789-66-4"	"tetrabromosilane"	663	46.62	382	
"7789-67-5"	"stannic bromide"	744	43.43	417	0.165
"7789-68-6"	"titanium (IV) bromide"	795.7	57.13	391	
"7789-75-5"	"calcium fluoride"	4570.85	376.91	302.5	0.752
"7789-89-1"	"1,1,1-trichloropropane"	585.43	39.16	339.5	0.256
"7789-99-3"	"2-methylpentyl acetate"	618	25.4	494	0.54
"779-51-1"	"1,2-diphenyl-1-propene"	796.49	26.6	640.5	0.465
"7790-29-6"	"rubidium iodide"	2568.65	211.81	302.5	0.582
"7790-30-9"	"thallium iodide"	1785.26	147.21	302.5	0.474
"7790-44-5"	"antimony triiodide"	1102	90.54	302.5	0.33
"7790-47-8"	"stannic iodide"	968	83.42	531	0.306
"7790-79-6"	"cadmium fluoride"	3296.66	271.84	302.5	0.656
"7790-80-9"	"cadmium iodide"	1741.29	143.59	302.5	0.467
"7790-89-8"	"chlorine monofluoride"	282.32	79.01	81.39	0.276
"7790-91-2"	"chlorine trifluoride"	368.4	53.7	161	0.173
"7790-94-5"	"chlorosulfonic acid"	700	85	195	0.301
"7791-07-3"	"sodium perchlorate monohydrate"	3400	355	266	0.134
"7791-09-5"	"rhenium (VII) trioxychloride"	599.24	0	0	
"7791-11-9"	"rubidium chloride"	2694.06	222.15	302.5	0.596
"7791-21-1"	"chlorine monoxide"	444.68	74.94	135.16	0.303
"7791-23-3"	"selenium oxychloride"	730	70.9	235	0.34
"7791-25-5"	"sulfuryl chloride"	545	46.1	234	0.1764
"7791-27-7"	"pyrosulfuryl chloride"	586.25	34.94	365.45	
"77928-86-0"	"5,6-dibromodecane"	741.82	24.22	713.5	0.701
"7795-80-4"	"2-methyl-2,3-pentanediol"	670.5	39.91	392.5	1.105
"7795-91-7"	"ethylene glycol mono-sec-butyl ether"	600	32.4	407.3	0.817
"77958-21-5"	"2-methyl-5-hepteN-3-one"	635	31.6	451.8	
"7796-36-3"	"cis-1-iodo-1-propene"	582.79	45.9	271.5	0.198
"7796-54-5"	"trans-1-iodo-1-propene"	582.79	45.9	271.5	0.198
"78-00-2"	"tetraethyl lead"	655	21.25	636.1	0.4783
"78-11-5"	"pentaerythritol tetranitrate"	676	22.4	731	1.451
"78-26-2"	"2-methyl-2-propyl-1,3-propanediol"	664.98	35.14	454.5	1.175
"78-30-8"	"tri-o-cresyl phosphate"	1060	449	0	1.117
"78-40-0"	"triethyl phosphate"	757	68.4	586	0.414
"78-59-1"	"isophorone"	715	33.3	456	0.4
"78-69-3"	"3,7-dimethyl-3-octanol"	623.33	23.59	597.5	0.788
"78-74-0"	"1,1,2-tribromoethane"	709.9	70.03	327.5	0.476
"78-75-1"	"1,2-dibromopropane"	634.11	54.07	321.5	0.384
"78-76-2"	"2-bromobutane"	567	46.3	320	0.268
"78-77-3"	"1-bromo-2-methylpropane"	559.14	43	315.5	0.314
"78-78-4"	"isopentane"	460.4	33.8	306	0.228
"78-79-5"	"isoprene"	484	38.5	276	0.158
"78-80-8"	"2-methyl-1-butene-3-yne"	492	43.8	248	0.137
"78-81-9"	"isobutylamine"	513.73	42.15	312.6	0.363
"78-82-0"	"isobutyronitrile"	565	37.6	278	0.338
"78-83-1"	"isobutanol"	547.78	43	273	0.585
"78-84-2"	"isobutyraldehyde"	507	41	263	0.362
"78-85-3"	"methacrolein"	530	42.5	255	0.246
"78-86-4"	"2-chlorobutane"	520.6	39	300	0.291
"78-87-5"	"1,2-dichloropropane"	572	42.4	291	0.256
"78-88-6"	"2,3-dichloropropene"	578	43.8	277	0.194
"78-90-0"	"1,2-propanediamine"	587	52.7	316	0.474
"78-91-1"	"2-aminopropanol"	631	54.63	269.7	0.737
"78-92-2"	"sec-butanol"	536.05	41.79	269	0.572
"78-93-3"	"methyl ethyl ketone"	535.5	41.54	267	0.324
"78-94-4"	"methyl vinyl ketone"	555	47.6	269.8	
"78-96-6"	"1-amino-2-propanol"	614	56.7	278	0.787
"78-97-7"	"lactonitrile"	643	50.3	243	0.796
"78-99-9"	"1,1-dichloropropane"	560	42.4	291	0.253
"7803-49-8"	"hydroxylamine"	574	137	74.64	0.694
"7803-51-2"	"phosphine"	324.75	65.4	155.95	0.0452
"7803-52-3"	"stibine"	440.35	73.06	157.2	0.097
"7803-57-8"	"hydrazine hydrate"	595.6	97.79	132.67	
"7803-62-5"	"silane"	269.7	48.4	132.7	0.0938
"782-05-8"	"cis-2,3-diphenyl-2-butene"	790.85	24.15	696.5	0.509
"782-06-9"	"trans-2,3-diphenyl-2-butene"	790.85	24.15	696.5	0.509
"78738-36-0"	"1-(diethylamino)-2-propanol, (±)"	716	33	468.3	
"79-00-5"	"1,1,2-trichloroethane"	602	44.8	281	0.259
"79-01-6"	"trichloroethylene"	571	49.1	256	0.217
"79-02-7"	"dichloroacetaldehyde"	555	49.5	245	0.344
"79-04-9"	"chloroacetyl chloride"	581	51.1	245	0.354
"79-06-1"	"acrylamide"	776	57.3	260	0.486
"79-09-4"	"propanoic acid"	600.81	46.17	233	0.575
"79-10-7"	"acrylic acid"	615	56.6	208	0.518
"79-11-8"	"chloroacetic acid"	686	57.8	221	0.551
"79-14-1"	"glycolic acid"	616	73.1	177.7	1.059
"79-16-3"	"N-methylacetamide"	718	49.8	267	0.435
"79-20-9"	"methyl acetate"	506.55	47.5	228	0.331
"79-21-0"	"peroxyacetic acid"	552	64	198	0.752
"79-22-1"	"methyl chloroformate"	525	53.6	221	0.393
"79-24-3"	"nitroethane"	593	51.6	236	0.38
"79-27-6"	"1,1,2,2-tetrabromoethane"	824	46	401	0.147
"79-29-8"	"2,3-dimethylbutane"	500	31.5	361	0.25
"79-31-2"	"isobutanoic acid"	605	37	292	0.614
"79-34-5"	"1,1,2,2-tetrachloroethane"	645	40.9	325	0.247
"79-36-7"	"dichloroacetyl chloride"	579	46.1	288	0.371
"79-38-9"	"chlorotrifluoroethylene"	379.15	40.53	212	0.244
"79-39-0"	"2-methacrylamide"	741	54.5	298	0.421
"79-41-4"	"methacrylic acid"	662	47.9	280	0.332
"79-43-6"	"dichloroacetic acid"	686	51.7	265	0.555
"79-46-9"	"2-nitropropane"	594	44.5	288	0.384
"79-92-5"	"camphene"	638	27.5	499	0.296
"79630-70-9"	"1,2,2,3-tetrachlorobutane"	690	34	439.5	
"80-05-7"	"bisphenol a"	849	29.3	677	0.946
"80-10-4"	"dichlorodiphenylsilane"	814	23.3	674	0.428
"80-15-9"	"cumene hydroperoxide"	605	33.4	419	0.995
"80-43-3"	"dicumyl peroxide"	884	21.8	873	0.45
"80-46-6"	"p-tert-amylphenol"	752	29.8	546	0.564
"80-47-7"	"p-menthane-8-hydroperoxide"	711	29.5	553	0.901
"80-56-8"	"α-pinene"	644	27.6	454	0.221
"80-59-1"	"trans-2-methyl-2-butenoic acid"	676	40.83	322.5	0.389
"80-62-6"	"methyl methacrylate"	564	36.8	323	0.317
"80-81-9"	"1,2,3,4-tetrahydro-6-ethyl-1,1,4,4-tetramethylnaphthalene"	780.71	19.19	772.5	0.594
"80204-19-9"	"2-bromo-2-pentene"	586.22	40.33	356.2	0.334
"80325-37-7"	"6-chloro-2-methyl-2-heptene"	640.48	25.74	512.5	0.43
"80648-26-6"	"3,5-dimethylstyrene"	679.34	29.7	468.5	0.375
"80864-10-4"	"2,2,4-trimethyl-1,4-pentanediol"	692.04	31	517	1.28
"811-93-8"	"2-methyl-1,2-propanediamine"	612.33	46.1	316.1	0.533
"811-94-9"	"1,2,2-trifluoropropane"	404.58	38.01	246.5	0.254
"811-95-0"	"1,1,2-trichloro-1-fluoroethane"	559.78	41.78	302	0.264
"811-97-2"	"1,1,1,2-tetrafluoroethane"	374.18	40.56	198.8	0.327
"812-03-3"	"1,1,1,2-tetrachloropropane"	646.86	37.78	382.5	0.28
"812-04-4"	"1,1-dichloro-1,2,2-trifluoroethane"	481.32	39.46	282.5	0.287
"81280-12-8"	"4-methyl-4-hepteN-3-ol"	615	31	387.5	
"813-75-2"	"1,2,2,3-tetrafluoropropane"	453.25	35.99	264.5	0.306
"814-40-4"	"ethyl methyl sulfate"	775	60.25	345.5	0.126
"814-78-8"	"methyl isopropenyl ketone"	566	38.9	302	0.286
"815-24-7"	"di-tert-butyl ketone"	629.65	24.67	533.8	0.541
"816-11-5"	"methyl 2-ethylbutanoate"	584	27.65	444.5	0.456
"816-79-5"	"3-ethyl-2-pentene"	547.66	29.76	408.5	0.307
"817-46-9"	"2-propyl-1-hexanol"	612.65	25.46	552.5	0.846
"817-60-7"	"2-ethyl-1-heptanol"	625.91	25.46	552.5	0.846
"817-91-4"	"4-methyl-1-heptanol"	613.14	28.11	496.5	0.806
"81726-82-1"	"1,17-dibromoheptadecane"	818.59	13.68	1105.5	0.904
"818-23-5"	"8-pentadecanone"	723.72	14.85	881.5	0.787
"818-49-5"	"4-methyl-1-hexanol"	608.04	31.21	440.5	0.764
"818-61-1"	"2-hydroxyethyl acrylate"	662	39.8	359	0.864
"818-81-5"	"2-methyl-1-octanol"	627.23	25.46	552.5	0.846
"818-92-8"	"3-fluoro-1-propene"	394.72	43.92	202.5	0.218
"819-97-6"	"1-methylpropyl butanoate"	596	25.5	497	0.5
"81925-81-7"	"5-methyl-2-hepteN-4-one"	635	31.6	451.8	
"81931-81-9"	"2,3-dimethyl-2-tert-butyl-1-butanol"	628.77	24.03	586.5	0.693
"820-05-3"	"4,6-dimethyl-1-heptanol"	606.35	25.66	546.5	0.814
"820-29-1"	"5-decanone"	656.59	22.36	601.5	0.612
"820-55-3"	"1,1-dichloropentane"	610.24	32.14	407.5	0.352
"821-09-0"	"4-penteN-1-ol"	573	45.5	258.4	
"821-11-4"	"trans-2-butene-1,4-diol"	666	52	279	1.219
"821-25-0"	"1,1-dichloroheptane"	654.02	26.14	519.5	0.442
"821-41-0"	"5-hexeN-1-ol"	587	39	303.8	
"821-55-6"	"2-nonanone"	652.5	24.1	560	0.498
"821-76-1"	"1,7-dichloroheptane"	654.02	26.14	519.5	0.442
"821-88-5"	"1,1-dichlorononane"	688.79	21.67	631.5	0.528
"821-93-2"	"1,1-dichlorotridecane"	745.93	15.6	855.5	0.681
"821-95-4"	"1-undecene"	639	20.3	642	0.517
"821-96-5"	"cis-2-undecene"	637.84	20.23	637.8	0.504
"821-98-7"	"cis-4-undecene"	637.84	20.23	637.8	0.504
"821-99-8"	"1,9-dichlorononane"	688.79	21.67	631.5	0.528
"822-01-5"	"1,1-dichloroundecane"	720.08	18.26	743.5	0.61
"822-06-0"	"hexamethylene diisocyanate"	720.8	29.6	513	0.729
"822-13-9"	"1-chlorotridecane"	724.59	15.96	812.5	0.661
"822-15-1"	"1,1-dichloropentadecane"	770.83	13.48	967.5	0.738
"822-20-8"	"heptadecyl acetate"	771.3	10	1157	
"822-23-1"	"octadecyl acetate"	779.6	9.4	1215	
"822-24-2"	"eicosyl acetate"	794.7	8.3	1331	
"822-27-5"	"9,10-dithiaoctadecane"	784.46	13.52	1039.5	0.806
"822-35-5"	"cyclobutene"	446.33	52.66	195.5	0.189
"822-50-4"	"trans-1,2-dimethylcyclopentane"	553.15	34.45	360	0.27
"823-40-5"	"2-methyl-1,3-benzenediamine"	804	43.8	430	0.58
"824-90-8"	"trans-1-butenylbenzene"	682.45	30.88	467.3	0.356
"82507-04-8"	"1-chloro-4-ethyl-3-hexene"	640.48	25.74	512.5	0.43
"826-18-6"	"1-pentenylbenzene"	703	28	521.3	
"826-77-7"	"4,6-dimethylquinoline"	783.28	33.53	514.5	0.497
"827-52-1"	"cyclohexylbenzene"	744	28.8	529	0.378
"828-00-2"	"2,6-dimethyl-1,3-dioxaN-4-ol acetate, cis and trans"	669	28.4	477	0.582
"829-26-5"	"2,3,6-trimethylnaphthalene"	775.49	26.71	577.5	0.492
"83-32-9"	"acenaphthene"	803.15	31	553	0.381
"83-46-5"	"stigmast-5-eN-3-ol, (3beta)"	953	11.2	1460	1.054
"836-30-6"	"4-nitro-N-phenylaniline"	814	28.7	623	0.766
"838-45-9"	"1,3-diphenylpentane"	786.4	20.4	836	0.587
"84-15-1"	"o-terphenyl"	857	29.9	731	0.551
"84-65-1"	"anthraquinone"	900	31.5	544	0.681
"84-66-2"	"diethyl phthalate"	757	23.3	635	0.761
"84-69-5"	"diisobutyl phthalate"	762	17.8	891	0.916
"84-74-2"	"dibutyl phthalate"	781	17.5	846	0.957
"84-75-3"	"dihexyl phthalate"	793	14	1060	1.125
"84-76-4"	"dinonyl phthalate"	866	10.7	1370	0.996
"84-77-5"	"didecyl phthalate"	905	9.95	1480	0.891
"84276-14-2"	"(S)-1,2-decanediol"	716.12	25.3	629	1.315
"84852-15-3"	"4-nonylphenol, isomers"	738.5	20.9	757	0.793
"84869-41-0"	"heptadecyl butanoate"	789.7	9	1273	
"84869-42-1"	"nonadecyl butanoate"	804.2	8	1389	
"85-01-8"	"phenanthrene"	869	29	554	0.471
"85-44-9"	"phthalic anhydride"	791	47.2	421	0.708
"85514-84-7"	"(R)-1,2-dodecanediol"	742.07	21.04	741	1.322
"85514-85-8"	"(S)-1,2-dodecanediol"	742.07	21.04	741	1.322
"85523-00-8"	"N-isopropyl-N-methyl-tert-butylamine"	601.45	26.52	517.6	0.5
"85566-12-7"	"decyl alcohol (mixed isomers)"	629	23.55	598	0.793
"86-73-7"	"fluorene"	826	30	524	0.404
"86-74-8"	"dibenzopyrrole"	899	32.6	482	0.494
"86-89-5"	"1-pentylnaphthalene"	803	24.4	686	0.535
"86051-37-8"	"ethyl 3-methylnonanoate"	667	18.93	717.3	0.699
"86073-38-3"	"9-methyloctadecanoic acid"	810	13	1080	1.07
"86161-40-2"	"R,S-3-butene-1,2-diol"	679.44	52	279	1.174
"865-58-7"	"3-bromo-3-methyl-1-butene"	575.7	40.67	347.5	0.274
"86623-80-5"	"ethyl 3-methyl-3-pentenoate"	616	26	470.5	
"86661-53-2"	"3-chloro-3-ethyl-2,2-dimethylpentane"	661.88	22.27	588.5	0.505
"86668-33-9"	"7-methyl-3-octene"	593.62	23.72	524.8	0.411
"868-57-5"	"methyl sec-pentanoate"	572.95	30.7	400	0.412
"868-77-9"	"ethylene glycol monomethacrylate"	677	36.4	394	0.839
"87-26-3"	"2-(1-methylbutyl)phenol"	751	29.8	546	0.569
"87-59-2"	"2,3-dimethylaniline"	695.58	36.84	432	0.433
"87-61-6"	"1,2,3-trichlorobenzene"	734	45.1	395	0.426
"87-62-7"	"2,6-dimethylaniline"	695.58	36.84	432	0.433
"87-66-1"	"1,2,3-benzenetriol"	830	88.1	318	0.945
"87-68-3"	"hexachloro-1,3-butadiene"	738	28.4	550	0.168
"87-69-4"	"tartaric acid"	828	51.8	305	2.011
"87-85-4"	"hexamethylbenzene"	758	27.7	593	0.496
"87-89-8"	"inositol"	850	53.2	412	2.371
"870-63-3"	"1-bromo-3-methyl-2-butene"	582.88	40.47	358.5	0.331
"871-28-3"	"1-pentene-4-yne"	503	44	256	0.179
"871-83-0"	"2-methylnonane"	610	21.2	583	0.472
"872-05-9"	"1-decene"	617	22.2	584	0.475
"872-10-6"	"6-thiaundecane"	701.03	21.41	649.5	0.551
"872-50-4"	"N-methyl-2-pyrrolidone"	721.6	45.2	310	0.373
"872-55-9"	"2-ethylthiophene"	623.6	40.6	325	0.298
"872-93-5"	"3-methyl sulfolane"	817	42.4	353	0.419
"873-66-5"	"trans-1-propenylbenzene"	670	33.6	407	0.339
"873-94-9"	"3,3,5-trimethylcyclohexanone"	690	29.5	474.6	
"873567-30-7"	"1,3-tridecanediol"	750.55	19.34	795.5	1.31
"874-41-9"	"4-ethyl-m-xylene"	665	28.8	482	0.414
"874-79-3"	"propyl phenyl sulfide"	720.19	33.26	485.5	0.417
"875-85-4"	"3,4-diethylphenol"	780.8	33.76	421.5	0.541
"876-20-0"	"2,5-diethylphenol"	712.57	33.76	421.5	0.541
"877-43-0"	"2,6-dimethylquinoline"	773.81	33.53	514.5	0.497