"CASRN"	"Chemical"	"Tc"	"Pc"	"Vc"	"omega"
"62184-13-8"	"2,5,6-trimethylnonane"	638.89	18.17	689.5	0.491
"62184-14-9"	"2,5,7-trimethylnonane"	636.16	18.17	689.5	0.491
"62184-15-0"	"2,6,6-trimethylnonane"	634.33	18.22	690.5	0.461
"62184-16-1"	"2,6,7-trimethylnonane"	642.97	18.17	689.5	0.491
"62184-17-2"	"2,7,7-trimethylnonane"	643.92	18.22	690.5	0.461
"62184-18-3"	"3,3,4-trimethylnonane"	650.77	18.22	690.5	0.461
"62184-19-4"	"3,3,5-trimethylnonane"	634.33	18.22	690.5	0.461
"62184-20-7"	"3,3,6-trimethylnonane"	645.29	18.22	690.5	0.461
"62184-21-8"	"3,3,7-trimethylnonane"	641.18	18.22	690.5	0.461
"62184-22-9"	"3,4,4-trimethylnonane"	648.03	18.22	690.5	0.461
"62184-23-0"	"3,4,5-trimethylnonane"	644.34	18.17	689.5	0.491
"62184-24-1"	"3,4,6-trimethylnonane"	640.25	18.17	689.5	0.491
"62184-25-2"	"3,5,5-trimethylnonane"	635.7	18.22	690.5	0.461
"62184-26-3"	"3,5,6-trimethylnonane"	640.25	18.17	689.5	0.491
"62184-27-4"	"3,5,7-trimethylnonane"	637.53	18.17	689.5	0.491
"62184-28-5"	"3,6,6-trimethylnonane"	634.33	18.22	690.5	0.461
"62184-29-6"	"4,4,5-trimethylnonane"	645.29	18.22	690.5	0.461
"62184-30-9"	"4,4,6-trimethylnonane"	635.7	18.22	690.5	0.461
"62184-31-0"	"4,5,5-trimethylnonane"	645.29	18.22	690.5	0.461
"62184-32-1"	"4-tert-butyloctane"	635.7	18.22	690.5	0.461
"62184-33-2"	"2-methyl-4-propyloctane"	628.54	18.05	695.5	0.519
"62184-34-3"	"2-methyl-5-propyloctane"	628.54	18.05	695.5	0.519
"62184-35-4"	"3-methyl-4-propyloctane"	636.66	18.05	695.5	0.519
"62184-36-5"	"3-methyl-5-propyloctane"	632.6	18.05	695.5	0.519
"62184-37-6"	"2-methyl-4-ethylnonane"	638.02	18.05	695.5	0.519
"62184-38-7"	"2-methyl-5-ethylnonane"	635.31	18.05	695.5	0.519
"62184-39-8"	"2-methyl-6-ethylnonane"	638.02	18.05	695.5	0.519
"62184-40-1"	"2-methyl-7-ethylnonane"	643.43	18.05	695.5	0.519
"62184-41-2"	"3-methyl-4-ethylnonane"	642.08	18.05	695.5	0.519
"62184-42-3"	"3-methyl-5-ethylnonane"	633.95	18.05	695.5	0.519
"62184-43-4"	"3-methyl-6-ethylnonane"	639.37	18.05	695.5	0.519
"62184-44-5"	"3-methyl-7-ethylnonane"	640.72	18.05	695.5	0.519
"62184-45-6"	"4-methyl-3-ethylnonane"	640.72	18.05	695.5	0.519
"62184-46-7"	"4-methyl-5-ethylnonane"	638.02	18.05	695.5	0.519
"62184-47-8"	"4-methyl-6-ethylnonane"	635.31	18.05	695.5	0.519
"62184-48-9"	"4-methyl-7-ethylnonane"	640.72	18.05	695.5	0.519
"62184-49-0"	"5-methyl-3-ethylnonane"	639.37	18.05	695.5	0.519
"62184-50-3"	"2,2,4-trimethylnonane"	635.7	18.22	690.5	0.461
"62184-51-4"	"2,2,5-trimethylnonane"	635.7	18.22	690.5	0.461
"62184-52-5"	"2,2,6-trimethylnonane"	634.33	18.22	690.5	0.461
"62184-53-6"	"2,2,7-trimethylnonane"	641.18	18.22	690.5	0.461
"62184-54-7"	"2,2,8-trimethylnonane"	641.18	18.22	690.5	0.461
"62184-55-8"	"2,3,3-trimethylnonane"	650.77	18.22	690.5	0.461
"62184-56-9"	"2,3,4-trimethylnonane"	644.34	18.17	689.5	0.491
"62184-57-0"	"2,3,5-trimethylnonane"	638.89	18.17	689.5	0.491
"62184-58-1"	"2,3,6-trimethylnonane"	641.61	18.17	689.5	0.491
"62184-59-2"	"2,3,7-trimethylnonane"	645.7	18.17	689.5	0.491
"62184-60-5"	"2,3,8-trimethylnonane"	644.34	18.17	689.5	0.491
"62184-61-6"	"2,4,4-trimethylnonane"	634.33	18.22	690.5	0.461
"62184-62-7"	"2,4,5-trimethylnonane"	637.53	18.17	689.5	0.491
"62184-67-2"	"3-ethylthiacyclopentane"	671.54	38.1	358.5	0.273
"62184-71-8"	"4-isopropylnonane"	638.02	18.05	695.5	0.519
"62184-72-9"	"5-isopropylnonane"	638.02	18.05	695.5	0.519
"62184-73-0"	"2-methyl-3-ethylnonane"	642.08	18.05	695.5	0.519
"62184-74-1"	"1-nonylcyclopentene"	707.91	18.17	746.5	0.573
"62184-75-2"	"1-decylcyclopentene"	718.6	16.77	802.5	0.611
"62184-76-3"	"1-undecylcyclopentene"	729.7	15.52	858.5	0.646
"62184-77-4"	"1-dodecylcyclopentene"	739.92	14.41	914.5	0.678
"62184-78-5"	"1-tridecylcyclopentene"	749.34	13.42	970.5	0.706
"62184-79-6"	"1-tetradecylcyclopentene"	757.98	12.52	1026.5	0.73
"62184-80-9"	"1-pentadecylcyclopentene"	767.17	11.71	1082.5	0.748
"62184-81-0"	"1-hexadecylcyclopentene"	775.66	10.98	1138.5	0.76
"62184-82-1"	"1,3-dimethylcyclopentene"	558.34	34.32	353.5	0.245
"62184-83-2"	"1,5,5-trimethylcyclopentene"	602.71	31.92	410.5	0.315
"62184-89-8"	"2,2-dimethyl-4,4-diethylhexane"	655.89	18.39	685.5	0.403
"62184-90-1"	"2,3-dimethyl-3,4-diethylhexane"	657.43	18.34	684.5	0.432
"62184-91-2"	"2,3-dimethyl-4,4-diethylhexane"	657.43	18.34	684.5	0.432
"62184-92-3"	"2,4-dimethyl-3,3-diethylhexane"	651.92	18.34	684.5	0.432
"62184-93-4"	"2,4-dimethyl-3,4-diethylhexane"	651.92	18.34	684.5	0.432
"62184-94-5"	"2,5-dimethyl-3,3-diethylhexane"	638.14	18.34	684.5	0.432
"62184-95-6"	"2,5-dimethyl-3,4-diethylhexane"	634.39	18.29	683.5	0.462
"62184-96-7"	"3,3-dimethyl-4,4-diethylhexane"	669.75	18.39	685.5	0.403
"62184-97-8"	"3,4-dimethyl-3,4-diethylhexane"	669.75	18.39	685.5	0.403
"62184-98-9"	"2,2,3,3-tetramethyl-4-ethylhexane"	661.46	18.52	679.5	0.375
"62184-99-0"	"2,2,3,4-tetramethyl-3-ethylhexane"	665.64	18.52	679.5	0.375
"62185-00-6"	"2,2,3,4-tetramethyl-4-ethylhexane"	671.22	18.52	679.5	0.375
"62185-01-7"	"2,2,3,5-tetramethyl-3-ethylhexane"	651.69	18.52	679.5	0.375
"62185-02-8"	"2,2,3,5-tetramethyl-4-ethylhexane"	643.47	18.47	678.5	0.404
"62185-03-9"	"2,2,4,4-tetramethyl-3-ethylhexane"	660.06	18.52	679.5	0.375
"62185-04-0"	"2,2,4,5-tetramethyl-3-ethylhexane"	642.08	18.47	678.5	0.404
"62185-05-1"	"2,2,4,5-tetramethyl-4-ethylhexane"	655.88	18.52	679.5	0.375
"62185-06-2"	"2,2,5,5-tetramethyl-3-ethylhexane"	632.16	18.52	679.5	0.375
"62185-07-3"	"2,3,3,4-tetramethyl-4-ethylhexane"	671.22	18.52	679.5	0.375
"62185-08-4"	"2,3,3,5-tetramethyl-4-ethylhexane"	651.79	18.47	678.5	0.404
"62185-09-5"	"2,3,4,4-tetramethyl-3-ethylhexane"	671.22	18.52	679.5	0.375
"62185-10-8"	"2,3,4,5-tetramethyl-3-ethylhexane"	657.33	18.47	678.5	0.404
"62185-11-9"	"2,2,3,3,4,4-hexamethylhexane"	691.43	18.69	674.5	0.318
"62185-12-0"	"2,2,3,3,4,5-hexamethylhexane"	662.99	18.64	673.5	0.347
"62185-13-1"	"2,2,3,4,4,5-hexamethylhexane"	672.82	18.64	673.5	0.347
"62185-14-2"	"2,2,3,4,5,5-hexamethylhexane"	650.35	18.64	673.5	0.347
"62185-15-3"	"2,2,4-trimethyl-3,3-diethylpentane"	668.43	18.52	679.5	0.375
"62185-16-4"	"2,4-dimethyl-3-ethyl-3-isopropylpentane"	664.26	18.47	678.5	0.404
"62185-17-5"	"2,2,3,4-tetramethyl-3-isopropylpentane"	670.01	18.64	673.5	0.347
"62185-18-6"	"2,2,4,4-tetramethyl-3-isopropylpentane"	655.97	18.64	673.5	0.347
"62185-19-7"	"3,4,4,6-tetramethyloctane"	645.03	18.34	684.5	0.432
"62185-20-0"	"3,4,5,5-tetramethyloctane"	647.78	18.34	684.5	0.432
"62185-21-1"	"3,4,5,6-tetramethyloctane"	646.71	18.29	683.5	0.462
"62185-22-2"	"4,4,5,5-tetramethyloctane"	655.89	18.39	685.5	0.403
"62185-23-3"	"2-methyl-4-tert-butylheptane"	631.25	18.34	684.5	0.432
"62185-24-4"	"3-methyl-4-tert-butylheptane"	638.14	18.34	684.5	0.432
"62185-25-5"	"4-methyl-4-tert-butylheptane"	653.12	18.39	685.5	0.403
"62185-26-6"	"3-ethyl-4-propylheptane"	635.31	18.05	695.5	0.519
"62185-27-7"	"3-ethyl-4-isopropylheptane"	637.53	18.17	689.5	0.491
"62185-28-8"	"4-ethyl-4-isopropylheptane"	648.03	18.22	690.5	0.461
"62185-29-9"	"2,2,3,4-tetramethyl-3-pentanol"	612.5	26.46	530.5	0.651
"62185-30-2"	"2,3-dimethyl-4-propylheptane"	636.16	18.17	689.5	0.491
"62185-31-3"	"2,4-dimethyl-4-propylheptane"	632.97	18.22	690.5	0.461
"62185-32-4"	"2,5-dimethyl-4-propylheptane"	630.72	18.17	689.5	0.491
"62185-33-5"	"2,6-dimethyl-4-propylheptane"	623.36	18.17	689.5	0.491
"62185-34-6"	"3,3-dimethyl-4-propylheptane"	642.55	18.22	690.5	0.461
"62185-35-7"	"3,4-dimethyl-4-propylheptane"	645.29	18.22	690.5	0.461
"62185-36-8"	"3,5-dimethyl-4-propylheptane"	638.89	18.17	689.5	0.491
"62185-37-9"	"2,2-dimethyl-3-isopropylheptane"	638.14	18.34	684.5	0.432
"62185-38-0"	"2,2-dimethyl-4-isopropylheptane"	627.12	18.34	684.5	0.432
"62185-39-1"	"2,3-dimethyl-3-isopropylheptane"	653.29	18.34	684.5	0.432
"62185-40-4"	"2,3-dimethyl-4-isopropylheptane"	637.13	18.29	683.5	0.462
"62185-41-5"	"2,4-dimethyl-3-isopropylheptane"	637.13	18.29	683.5	0.462
"62185-42-6"	"2,4-dimethyl-4-isopropylheptane"	640.89	18.34	684.5	0.432
"62185-43-7"	"2,5-dimethyl-3-isopropylheptane"	634.39	18.29	683.5	0.462
"62185-44-8"	"2,5-dimethyl-4-isopropylheptane"	633.02	18.29	683.5	0.462
"62185-45-9"	"2,6-dimethyl-3-isopropylheptane"	635.48	18.29	683.5	0.462
"62185-46-0"	"3,3-dimethyl-4-isopropylheptane"	643.65	18.34	684.5	0.432
"62185-47-1"	"3,4-dimethyl-4-isopropylheptane"	653.29	18.34	684.5	0.432
"62198-55-4"	"2,3,4-trimethyl-4-ethylheptane"	649.16	18.34	684.5	0.432
"62198-56-5"	"2,3,4-trimethyl-5-ethylheptane"	643.97	18.29	683.5	0.462
"62198-57-6"	"2,3,5-trimethyl-3-ethylheptane"	648.47	18.34	684.5	0.432
"62198-58-7"	"2,3,5-trimethyl-4-ethylheptane"	642.6	18.29	683.5	0.462
"62198-59-8"	"2,3,5-trimethyl-5-ethylheptane"	643.65	18.34	684.5	0.432
"62198-60-1"	"2,3,6-trimethyl-3-ethylheptane"	646.41	18.34	684.5	0.432
"62198-61-2"	"2,3,6-trimethyl-4-ethylheptane"	634.39	18.29	683.5	0.462
"62198-62-3"	"2,3,6-trimethyl-5-ethylheptane"	638.5	18.29	683.5	0.462
"62198-63-4"	"2,4,4-trimethyl-3-ethylheptane"	643.65	18.34	684.5	0.432
"62198-64-5"	"2,4,4-trimethyl-5-ethylheptane"	640.89	18.34	684.5	0.432
"62198-65-6"	"2,4,5-trimethyl-3-ethylheptane"	642.6	18.29	683.5	0.462
"62198-66-7"	"2,4,5-trimethyl-4-ethylheptane"	645.03	18.34	684.5	0.432
"62198-67-8"	"2,4,5-trimethyl-5-ethylheptane"	647.78	18.34	684.5	0.432
"62198-68-9"	"2,4,6-trimethyl-3-ethylheptane"	635.76	18.29	683.5	0.462
"62198-69-0"	"2,4,6-trimethyl-4-ethylheptane"	631.25	18.34	684.5	0.432
"62198-70-3"	"2,5,5-trimethyl-3-ethylheptane"	638.14	18.34	684.5	0.432
"62198-71-4"	"2,5,5-trimethyl-4-ethylheptane"	640.89	18.34	684.5	0.432
"62198-72-5"	"3,3,4-trimethyl-4-ethylheptane"	662.82	18.39	685.5	0.403
"62198-73-6"	"3,3,4-trimethyl-5-ethylheptane"	650.54	18.34	684.5	0.432
"62198-74-7"	"3,3,5-trimethyl-4-ethylheptane"	647.78	18.34	684.5	0.432
"62198-75-8"	"3,3,5-trimethyl-5-ethylheptane"	658.66	18.39	685.5	0.403
"62198-76-9"	"3,4,4-trimethyl-3-ethylheptane"	662.82	18.39	685.5	0.403
"62198-77-0"	"3,4,4-trimethyl-5-ethylheptane"	654.67	18.34	684.5	0.432
"62198-78-1"	"3,4,5-trimethyl-3-ethylheptane"	654.67	18.34	684.5	0.432
"62198-79-2"	"3,4,5-trimethyl-4-ethylheptane"	658.81	18.34	684.5	0.432
"62198-80-5"	"2,2,3,3,4-pentamethylheptane"	660.06	18.52	679.5	0.375
"62198-81-6"	"2,2,3,3,5-pentamethylheptane"	651.69	18.52	679.5	0.375
"62198-82-7"	"2,2,3,3,6-pentamethylheptane"	650.3	18.52	679.5	0.375
"62198-83-8"	"2,2,3,4,4-pentamethylheptane"	662.85	18.52	679.5	0.375
"62198-84-9"	"2,2,3,4,5-pentamethylheptane"	647.63	18.47	678.5	0.404
"62198-85-0"	"2,2,3,4,6-pentamethylheptane"	639.31	18.47	678.5	0.404
"62198-86-1"	"2,2,3,5,5-pentamethylheptane"	641.93	18.52	679.5	0.375
"62198-87-2"	"2,2,3,5,6-pentamethylheptane"	640.42	18.47	678.5	0.404
"62198-88-3"	"2,2,3,6,6-pentamethylheptane"	639.14	18.52	679.5	0.375
"62198-89-4"	"3,5-dimethyl-4-isopropylheptane"	639.86	18.29	683.5	0.462
"62198-90-7"	"2-methyl-3,3-diethylheptane"	652.14	18.22	690.5	0.461
"62198-91-8"	"2-methyl-3,4-diethylheptane"	637.53	18.17	689.5	0.491
"62198-92-9"	"2-methyl-3,5-diethylheptane"	637.53	18.17	689.5	0.491
"62198-93-0"	"2-methyl-4,4-diethylheptane"	639.81	18.22	690.5	0.461
"62198-94-1"	"2-methyl-4,5-diethylheptane"	634.8	18.17	689.5	0.491
"62198-95-2"	"2-methyl-5,5-diethylheptane"	645.29	18.22	690.5	0.461
"62198-96-3"	"3-methyl-3,4-diethylheptane"	649.4	18.22	690.5	0.461
"62198-97-4"	"3-methyl-3,5-diethylheptane"	643.92	18.22	690.5	0.461
"62198-98-5"	"3-methyl-4,4-diethylheptane"	653.51	18.22	690.5	0.461
"62198-99-6"	"3-methyl-4,5-diethylheptane"	641.61	18.17	689.5	0.491
"62199-00-2"	"3-methyl-5,5-diethylheptane"	646.66	18.22	690.5	0.461
"62199-01-3"	"4-methyl-3,3-diethylheptane"	654.88	18.22	690.5	0.461
"62199-02-4"	"4-methyl-3,4-diethylheptane"	649.4	18.22	690.5	0.461
"62199-03-5"	"4-methyl-3,5-diethylheptane"	644.34	18.17	689.5	0.491
"62199-04-6"	"2,2,3-trimethyl-3-ethylheptane"	655.89	18.39	685.5	0.403
"62199-05-7"	"2,2,3-trimethyl-4-ethylheptane"	642.27	18.34	684.5	0.432
"62199-06-8"	"2,2,3-trimethyl-5-ethylheptane"	640.89	18.34	684.5	0.432
"62199-07-9"	"2,2,4-trimethyl-3-ethylheptane"	640.89	18.34	684.5	0.432
"62199-08-0"	"2,2,4-trimethyl-4-ethylheptane"	647.57	18.39	685.5	0.403
"62199-09-1"	"2,2,4-trimethyl-5-ethylheptane"	634	18.34	684.5	0.432
"62199-10-4"	"2,2,5-trimethyl-3-ethylheptane"	638.14	18.34	684.5	0.432
"62199-11-5"	"2,2,5-trimethyl-4-ethylheptane"	632.63	18.34	684.5	0.432
"62199-12-6"	"2,2,5-trimethyl-5-ethylheptane"	640.64	18.39	685.5	0.403
"62199-13-7"	"2,2,6-trimethyl-3-ethylheptane"	638.14	18.34	684.5	0.432
"62199-14-8"	"2,2,6-trimethyl-4-ethylheptane"	624.36	18.34	684.5	0.432
"62199-15-9"	"2,2,6-trimethyl-5-ethylheptane"	634	18.34	684.5	0.432
"62199-16-0"	"2,3,3-trimethyl-4-ethylheptane"	650.54	18.34	684.5	0.432
"62199-17-1"	"2,3,3-trimethyl-5-ethylheptane"	643.65	18.34	684.5	0.432
"62199-18-2"	"2,3,4-trimethyl-3-ethylheptane"	656.05	18.34	684.5	0.432
"62199-19-3"	"2,2,5,7-tetramethyloctane"	631.25	18.34	684.5	0.432
"62199-20-6"	"2,2,6,6-tetramethyloctane"	635.1	18.39	685.5	0.403
"62199-21-7"	"2,2,6,7-tetramethyloctane"	639.52	18.34	684.5	0.432
"62199-22-8"	"2,3,3,4-tetramethyloctane"	653.29	18.34	684.5	0.432
"62199-23-9"	"2,3,3,5-tetramethyloctane"	643.65	18.34	684.5	0.432
"62199-24-0"	"2,3,3,6-tetramethyloctane"	646.41	18.34	684.5	0.432
"62199-25-1"	"2,3,3,7-tetramethyloctane"	646.41	18.34	684.5	0.432
"62199-26-2"	"2,3,4,4-tetramethyloctane"	646.41	18.34	684.5	0.432
"62199-27-3"	"2,3,4,5-tetramethyloctane"	643.97	18.29	683.5	0.462
"62199-28-4"	"2,3,4,6-tetramethyloctane"	641.23	18.29	683.5	0.462
"62199-29-5"	"2,3,4,7-tetramethyloctane"	639.86	18.29	683.5	0.462
"62199-30-8"	"2,3,5,5-tetramethyloctane"	645.03	18.34	684.5	0.432
"62199-31-9"	"2,3,5,6-tetramethyloctane"	641.23	18.29	683.5	0.462
"62199-32-0"	"2,3,5,7-tetramethyloctane"	634.39	18.29	683.5	0.462
"62199-33-1"	"2,3,6,6-tetramethyloctane"	642.27	18.34	684.5	0.432
"62199-34-2"	"2,4,4,5-tetramethyloctane"	639.52	18.34	684.5	0.432
"62199-35-3"	"2,4,4,6-tetramethyloctane"	631.25	18.34	684.5	0.432
"62199-36-4"	"2,4,5,5-tetramethyloctane"	640.89	18.34	684.5	0.432
"62199-37-5"	"2,4,5,6-tetramethyloctane"	639.86	18.29	683.5	0.462
"62199-38-6"	"2,4,6,6-tetramethyloctane"	634	18.34	684.5	0.432
"62199-39-7"	"2,5,5,6-tetramethyloctane"	643.65	18.34	684.5	0.432
"62199-40-0"	"2,5,6,6-tetramethyloctane"	646.41	18.34	684.5	0.432
"62199-41-1"	"3,3,4,4-tetramethyloctane"	658.66	18.39	685.5	0.403
"62199-42-2"	"3,3,4,5-tetramethyloctane"	649.16	18.34	684.5	0.432
"62199-43-3"	"3,3,4,6-tetramethyloctane"	646.41	18.34	684.5	0.432
"62199-44-4"	"3,3,5,5-tetramethyloctane"	651.73	18.39	685.5	0.403
"62199-45-5"	"3,3,5,6-tetramethyloctane"	642.27	18.34	684.5	0.432
"62199-46-6"	"3,3,6,6-tetramethyloctane"	641.61	18.39	685.5	0.403
"62199-47-7"	"3,4,4,5-tetramethyloctane"	653.29	18.34	684.5	0.432
"62199-61-5"	"2,2,4,4,5-pentamethylheptane"	654.48	18.52	679.5	0.375
"62199-62-6"	"2,2,4,4,6-pentamethylheptane"	639.98	18.52	679.5	0.375
"62199-63-7"	"2,2,4,5,5-pentamethylheptane"	640.53	18.52	679.5	0.375
"62199-64-8"	"2,2,4,5,6-pentamethylheptane"	635.15	18.47	678.5	0.404
"62199-65-9"	"2,2,5,5,6-pentamethylheptane"	640.53	18.52	679.5	0.375
"62199-66-0"	"2,3,3,4,4-pentamethylheptane"	664.25	18.52	679.5	0.375
"62199-67-1"	"2,3,3,4,5-pentamethylheptane"	655.95	18.47	678.5	0.404
"62199-68-2"	"2,3,3,4,6-pentamethylheptane"	649.01	18.47	678.5	0.404
"62199-69-3"	"2,3,3,5,5-pentamethylheptane"	660.06	18.52	679.5	0.375
"62199-70-6"	"2,3,4,4,5-pentamethylheptane"	655.95	18.47	678.5	0.404
"62199-71-7"	"2,3,4,4,6-pentamethylheptane"	642.08	18.47	678.5	0.404
"62199-72-8"	"2,3,4,5,5-pentamethylheptane"	651.79	18.47	678.5	0.404
"62199-73-9"	"2,4,4,5,5-pentamethylheptane"	654.48	18.52	679.5	0.375
"62199-74-0"	"3,3,4,4,5-pentamethylheptane"	668.43	18.52	679.5	0.375
"62199-75-1"	"3,3,4,5,5-pentamethylheptane"	672.62	18.52	679.5	0.375
"62199-76-2"	"2,2-dimethyl-3-tert-butylhexane"	654.48	18.52	679.5	0.375
"62199-77-3"	"2-methyl-3-ethyl-3-isopropylhexane"	648.03	18.22	690.5	0.461
"62199-78-4"	"2-methyl-4-ethyl-3-isopropylhexane"	630.72	18.17	689.5	0.491
"62199-79-5"	"2,2,3-trimethyl-3-isopropylhexane"	661.46	18.52	679.5	0.375
"62199-80-8"	"2,2,4-trimethyl-3-isopropylhexane"	640.7	18.47	678.5	0.404
"62199-81-9"	"2,2,5-trimethyl-3-isopropylhexane"	628.22	18.47	678.5	0.404
"62199-82-0"	"2,2,5-trimethyl-4-isopropylhexane"	628.22	18.47	678.5	0.404
"62199-83-1"	"2,3,4-trimethyl-3-isopropylhexane"	661.49	18.47	678.5	0.404
"62199-84-2"	"2,3,5-trimethyl-3-isopropylhexane"	647.63	18.47	678.5	0.404
"62199-85-3"	"2,3,5-trimethyl-4-isopropylhexane"	638.19	18.42	677.5	0.434
"62199-86-4"	"2,4,4-trimethyl-3-isopropylhexane"	644.85	18.47	678.5	0.404
"62199-87-5"	"3,3,4-triethylhexane"	656.25	18.22	690.5	0.461
"62199-88-6"	"2,2-dimethyl,3,3-diethylhexane"	655.89	18.39	685.5	0.403
"62199-89-7"	"2,2-dimethyl-3,4-diethylhexane"	638.14	18.34	684.5	0.432
"622-38-8"	"(1-thiapropyl)-benzene"	712.96	37.27	429.5	0.372
"622-39-9"	"2-propylpyridine"	653	33.3	417	0.376
"622-45-7"	"cyclohexyl acetate"	648	31.2	436	0.421
"622-57-1"	"N-ethyl-4-methylaniline"	705.58	32.84	482	0.413
"622-63-9"	"4-methyl-(1-thiapropyl)-benzene"	719.2	32.69	485.5	0.416
"622-80-0"	"N-propylaniline"	705.58	32.84	482	0.413
"622-93-5"	"3-(diethylamino)-1-propanol"	716	33	468.3	
"622-96-8"	"p-ethyltoluene"	640.2	32.3	427	0.367
"622-97-9"	"p-methylstyrene"	665	33.6	431	0.318
"6221-93-8"	"dodecyl propanoate"	733.1	13	925	1.163
"6221-95-0"	"tetradecyl propanoate"	754.8	11.4	1041	
"6221-96-1"	"hexadecyl propanoate"	773.5	10	1157	
"6221-98-3"	"tetradecyl butanoate"	764.2	10.7	1099	
"6221-99-4"	"hexadecyl butanoate"	781.8	9.5	1215	
"62211-85-2"	"4,5,6-trimethylnonane"	641.61	18.17	689.5	0.491
"62212-28-6"	"3,4-dimethyl-3-ethyloctane"	648.03	18.22	690.5	0.461
"6223-78-5"	"2,5-dichloro-2,5-dimethylhexane"	672.06	23.75	575.5	0.485
"623-08-5"	"N,4-dimethylaniline"	695.58	36.84	432	0.433
"623-13-2"	"4-methyl-(1-thiaethyl)-benzene"	729.78	36.6	429.5	0.371
"623-25-6"	"1,4-bis(chloromethyl)benzene"	735	33	446	
"623-27-8"	"1,4-benzenedicarboxaldehyde"	739	36.7	383	0.583
"623-34-7"	"1,4-dichloro-2-methylbutane"	617.7	32.14	407.5	0.352
"623-36-9"	"2-methyl-2-pentenal"	605	32.6	355	0.349
"623-37-0"	"3-hexanol"	579.3	33.1	384	0.558
"623-42-7"	"methyl butanoate"	554.5	34.73	340	0.378
"623-43-8"	"methyl trans-2-butenoate"	555.5	36.8	323	0.355
"623-55-2"	"5-methyl-3-hexanol"	577.32	31.49	434.5	0.731
"623-56-3"	"5-methyl-3-hexanone"	588.11	30.22	427.5	0.451
"623-70-1"	"ethyl trans-2-butenoate"	569	32.5	376	0.434
"623-81-4"	"diethyl sulfite"	624	37.7	373	0.507
"623-93-8"	"5-nonanol"	620.93	25.46	552.5	0.846
"6236-88-0"	"1-methyl-trans-4-ethylcyclohexane"	620.1	27.41	471.5	0.305
"624-08-8"	"9-heptadecanol"	767.2	14.1	974	0.798
"624-09-9"	"heptyl heptanoate"	695	16.6	814.2	
"624-13-5"	"propyl octanoate"	652	20.47	658.7	0.639
"624-16-8"	"4-decanone"	656.59	22.36	601.5	0.612
"624-20-4"	"1,2-dibromohexane"	684.21	36.82	489.5	0.526
"624-22-6"	"2-methyl-1-hexanol"	595	30.3	432	0.773
"624-24-8"	"methyl pentanoate"	572.95	30.7	400	0.412
"624-29-3"	"cis-1,4-dimethylcyclohexane"	598.15	29.38	460	0.231
"624-41-9"	"2-methylbutyl acetate"	589	28.1	442	0.459
"624-42-0"	"6-methyl-3-heptanone"	624	26.4	469	0.528
"624-48-6"	"dimethyl maleate"	675	32.2	403	0.562
"624-51-1"	"3-nonanol"	620.4	25.46	552.5	0.846
"624-54-4"	"pentyl propanoate"	617.8	23.4	519	0.474
"624-64-6"	"trans-2-butene"	428.63	41.02	238.2	0.218
"624-65-7"	"propargyl chloride"	541	53	211	0.152
"624-72-6"	"1,2-difluoroethane"	445	43.4	195	0.222
"624-73-7"	"1,2-diiodoethane"	749.91	47.3	323.5	0.223
"624-78-2"	"methylethylamine"	475	44.6	235	0.319
"624-79-3"	"ethyl isocyanide"	535.33	42.66	229.5	0.338
"624-82-8"	"N-hydroxymethanimidamide"	705	90.5	218	
"624-83-9"	"methyl isocyanate"	505	51.9	190	0.175
"624-89-5"	"2-thiabutane"	533	42.6	254	0.209
"624-92-0"	"dimethyl disulfide"	615	53.6	252	0.206
"624-95-3"	"3,3-dimethyl-1-butanol"	587.6	35.2	376	0.609
"624-96-4"	"1,3-dichloro-3-methylbutane"	627.97	32.54	402.5	0.291
"624-97-5"	"2-methyl-4-penteN-2-ol"	587	39	303.8	
"6240-90-0"	"(R)-2-heptylamine"	565.35	29.19	459.3	0.409
"62417-08-7"	"2,6-dimethyl-1-octanol"	635.71	23.34	602.5	0.852