"CASRN"	"Chemical"	"Tc"	"Pc"	"Vc"	"omega"
"15890-40-1"	"1,cis-2,trans-3-trimethylcyclopentane"	583.36	28.54	422.5	0.265
"15892-23-6"	"(<+->)-2-butanol"	538.22	42.19	272.4	0.593
"1590-87-0"	"disilane"	432	51.3	223	0.0939
"15901-42-5"	"3,3,5-trimethylcyclohexylamine"	662	28	510.3	
"15918-07-7"	"5-methyl-4-nonene"	616.98	21.85	581.3	0.457
"15918-08-8"	"2-propyl-1-pentene"	566.22	26.6	465.5	0.361
"1595-04-6"	"1-methyl-3-butylbenzene"	679.41	26.08	543.5	0.442
"1595-05-7"	"1-methyl-4-butylbenzene"	682.25	26.08	543.5	0.442
"1595-06-8"	"1-methyl-2-sec-butylbenzene"	671.35	26.3	537.5	0.412
"1595-11-5"	"1-methyl-2-butylbenzene"	683.67	26.08	543.5	0.442
"1595-16-0"	"1-methyl-4-sec-butylbenzene"	672.78	26.3	537.5	0.412
"1599-67-3"	"1-docosene"	790.73	9.25	1248.5	0.756
"1599-68-4"	"1-heneicosene"	779.35	9.81	1192.5	0.762
"16020-17-0"	"1,2,4,7-tetramethylnaphthalene"	810.54	23.89	633.5	0.535
"16021-20-8"	"1-ethyl-2-propylbenzene"	676.56	26.08	543.5	0.442
"1603-53-8"	"1,1-diphenyldodecane"	832.8	13.4	1275	0.83
"1603-84-5"	"carbon oxyselenide"	406.58	86.3	107.32	0.338
"16052-42-9"	"(1R)-(-)-menthyl chloride"	682.53	21.37	624.5	0.516
"16088-62-3"	"(S)-(-)-propylene oxide"	501.13	53.37	187	0.236
"1609-86-5"	"2-isocyanato-2-methylpropane"	568	34.4	360	0.415
"1610-29-3"	"2-methyl-2-penteN-1-ol"	587	39	303.8	
"16106-59-5"	"4,5-dimethyl-1-hexene"	558.62	26.9	452.5	0.327
"1613-34-9"	"2-ethylquinoline"	775.1	33.63	514.5	0.497
"1613-45-2"	"5-methyl-3-thiahexane"	601.86	31.96	419.5	0.351
"1613-46-3"	"4-thiaoctane"	653.5	28.51	481.5	0.318
"1613-51-0"	"thiacyclohexane"	657.12	46.53	295.5	0.22
"1613-52-1"	"2-ethylthiacyclohexane"	646.42	34.97	406.5	0.288
"16130-73-7"	"diheptadecylamine"	969.08	5.01	1974.5	
"16136-84-8"	"cis-1-chloro-1-propene"	485.56	44.98	232.5	0.208
"16136-85-9"	"trans-1-chloro-1-propene"	492.86	44.98	232.5	0.208
"1615-75-4"	"1-chloro-1-fluoroethane"	458.07	45.41	209	0.219
"16165-33-6"	"diundecylamine"	804.24	9.09	1302.5	0.8
"1617-18-1"	"ethyl 3-butenoate"	569	32.5	376	0.434
"1617-31-8"	"3-methyl-3-butenoic acid"	676	40.31	323.5	0.399
"1617-32-9"	"trans-3-pentenoic acid"	676	40.57	321.5	0.415
"1618-26-4"	"2,4-dithiapentane"	624	46.15	305	0.306
"16219-75-3"	"ethylidene norbornene"	629	34	408.1	0.314
"1622-10-2"	"1,5-dibromoheptane"	700.05	32.88	545.5	0.571
"16230-28-7"	"3,4-dibromohexane"	684.21	36.82	489.5	0.526
"1629-58-9"	"1-penteN-3-one"	575	43.6	303	
"1630-77-9"	"cis-1,2-difluoroethene"	394.67	47.69	163.5	0.21
"1630-78-0"	"trans-1,2-difluoroethene"	394.67	47.69	163.5	0.21
"1630-94-0"	"1,1-dimethylcyclopropane"	464.97	43.11	270.5	0.204
"1631-78-3"	"methylstannane"	438.71	46.72	204.53	
"1632-16-2"	"2-ethyl-1-hexene"	569	26.7	453	0.358
"1632-70-8"	"5-methylundecane"	645.32	17.92	701.5	0.548
"1632-71-9"	"5-methyl-4-ethylnonane"	639.37	18.05	695.5	0.519
"16325-63-6"	"2,4,4-trimethyl-1-pentanol"	606.71	28.69	485.5	0.706
"16325-64-7"	"3,4,4-trimethyl-1-pentanol"	606.5	28.69	485.5	0.706
"1633-90-5"	"3-hexanethiol"	615	30.4	414.5	0.353
"1633-97-2"	"2-methyl-2-pentanethiol"	615	30.4	414.5	0.353
"16331-21-8"	"1-bromooctacosane"	905.86	6.79	1665.5	
"1634-04-4"	"methyl tert-butyl ether"	497.1	34.3	329	0.266
"1634-09-9"	"1-butylnaphthalene"	792	26.8	631	0.495
"1635-02-5"	"3,4-dimethyl-3-hexeN-2-one"	635	31.6	451.8	
"16355-92-3"	"1,10-diiododecane"	836.2	20.4	765.5	0.55
"1636-41-5"	"4,5-diethyloctane"	636.66	18.05	695.5	0.519
"1636-43-7"	"5,6-dimethyldecane"	642.08	18.05	695.5	0.519
"1636-44-8"	"4-ethyldecane"	642.63	17.92	701.5	0.548
"16369-05-4"	"2-amino-3-methyl-1-butanol, (±)"	626.41	37.9	368	0.841
"16369-17-8"	"2-amino-4-methyl-1-pentanol, (±)"	681	34.4	436	0.97
"16369-21-4"	"2-(propylamino)ethanol"	626.41	37.9	368	0.841
"1638-22-8"	"4-butylphenol"	743.65	34.36	421.5	0.542
"1638-26-2"	"1,1-dimethylcyclopentane"	547	34.45	360	0.272
"16386-93-9"	"2,2-dimethyl-4-pentenoic acid"	716	29	451.8	
"1639-01-6"	"2,3-dimethyl-2-butanethiol"	615	30.4	414.5	0.353
"1639-09-4"	"1-heptanethiol"	645	27.7	465	0.419
"1640-89-7"	"ethylcyclopentane"	569.5	34	375	0.27
"16409-46-4"	"menthol 3-methylbutanoate"	760	17	836.4	
"16416-41-4"	"trans-1-bromo-3-methyl-1-butene"	582.5	40.62	351.5	0.326
"16416-44-7"	"cis-1-bromo-3-methyl-1-butene"	582.5	40.62	351.5	0.326
"16432-53-4"	"1,4-hexanediol"	691.94	38.97	403.5	1.214
"16435-49-7"	"2-methyl-1-dodecene"	673.88	17.09	745.5	0.571
"16435-50-0"	"5-chloro-2-pentene"	561.69	35.41	343.2	0.275
"1647-08-1"	"4,4-dimethyl-1-hexene"	560.33	26.99	453.5	0.297
"1647-16-1"	"1,9-decadiene"	646	30	457.7	
"1647-23-0"	"1-bromo-3,3-dimethylbutane"	606.7	34.24	421.5	0.373
"1649-08-7"	"1,2-dichloro-1,1-difluoroethane"	495.15	45.6	271	0.298
"1649-73-6"	"1-fluorooctadecane"	737.1	10.7	1048	0.753
"16491-15-9"	"1,5-dimethylcyclopentene"	573.63	34.32	353.5	0.245
"16499-88-0"	"3-butoxypropylamine"	716	33	468.3	
"1653-16-3"	"1-iodo-2-ethylhexane"	665.98	28.84	502.5	0.857
"1653-17-4"	"1,1,3,3-tetrachloropropane"	661.02	37.27	387.5	0.342
"1653-30-1"	"2-undecanol"	689.7	21.8	658	0.604
"1653-31-2"	"2-tridecanol"	718.6	18.6	768	0.657
"1653-32-3"	"3-tetradecanol"	736.2	17.15	812.5	0.686
"1653-34-5"	"2-pentadecanol"	743.2	16.1	878	0.728
"1653-40-3"	"6-methyl-1-heptanol"	619.19	28.11	496.5	0.806
"16538-47-9"	"cis-1-iodo-1-hexene"	659.87	32.14	439.5	0.33
"1654-86-0"	"decyl decanoate"	772	12.2	1090.5	
"1656-48-0"	"bis(cyanoethyl) ether"	783	28.3	377	0.782
"16580-23-7"	"1-methyl-2-isopropylcyclohexane"	667	25.7	534	0.274
"16580-24-8"	"1-methyl-3-isopropylcyclohexane"	667	25.7	534	0.274
"1663-39-4"	"tert-butyl acrylate"	592.33	28.3	428	0.432
"16631-63-3"	"1-methyl-1-propylcyclopentane"	618.03	29	478.5	0.321
"16644-66-9"	"1,1,1-tribromopentane"	736.13	46.15	490.5	0.541
"16644-98-7"	"trans-1-iodo-1-hexene"	659.87	32.14	439.5	0.33
"16666-42-5"	"cis-2-pentenoic acid"	676	40.57	321.5	0.415
"1669-44-9"	"3-octeN-2-one"	635	31.6	451.8	
"16696-65-4"	"1,11-dibromoundecane"	754.56	22.08	769.5	0.741
"16724-63-3"	"dihexadecylamine"	936.69	5.47	1862.5	
"16725-53-4"	"cis-9-tetradecenyl acetate"	782	16	906.4	
"16727-91-6"	"1-isobutylnaphthalene"	772.68	25.18	627.5	0.508
"16736-42-8"	"2,7-dimethyl-2,6-octadiene"	646	30	457.7	
"1674-10-8"	"1,2-dimethylcyclohexene"	621.08	31.63	401.5	0.26
"1674-33-5"	"1,2-dichloropentane"	620.88	32.14	407.5	0.352
"16744-89-1"	"2-methyl-5-hexeN-2-ol"	601	35	341	
"16745-94-1"	"3,4-dimethyl-1-hexene"	563.01	26.9	452.5	0.327
"16746-02-4"	"2-isopropyl-1-pentene"	563.69	26.82	459.5	0.332
"16746-85-3"	"4-ethyl-1-hexene"	555.81	26.68	458.5	0.357
"16746-86-4"	"2,3-dimethyl-1-hexene"	561	27.6	445	0.325
"16746-87-5"	"2,4-dimethyl-1-hexene"	561.06	26.82	459.5	0.332
"16747-25-4"	"2,2,3-trimethylhexane"	588	24.9	498.9	0.332
"16747-26-5"	"2,2,4-trimethylhexane"	573.5	23.8	506.6	0.321
"16747-28-7"	"2,3,3-trimethylhexane"	596	25.53	491	0.333
"16747-30-1"	"2,4,4-trimethylhexane"	581	24.6	511	0.352
"16747-31-2"	"3,3,4-trimethylhexane"	602.3	26.24	484	0.328
"16747-32-3"	"2,2-dimethyl-3-ethylpentane"	590	25.7	511	0.335
"16747-33-4"	"2,3-dimethyl-3-ethylpentane"	606.8	26.85	477	0.349
"16747-38-9"	"2,3,3,4-tetramethylpentane"	607.5	27.2	493	0.314
"16747-42-5"	"2,2,4,5-tetramethylhexane"	598.5	22.19	544	0.363
"16747-44-7"	"2,2,3,3,4-pentamethylpentane"	643.8	25.84	508	0.294
"16747-45-8"	"2,2,3,4,4-pentamethylpentane"	627.3	24.01	521	0.308
"16747-50-5"	"1-methyl-1-ethylcyclopentane"	582	30.2	428	0.33
"16751-58-9"	"3-aminohexane"	592.91	33.45	394.5	0.451
"16751-59-0"	"4-heptanamine"	565.35	29.19	459.3	0.409
"1678-80-4"	"1,cis-2,cis-4-trimethylcyclohexane"	621.87	26.49	470.5	0.28
"1678-81-5"	"1,trans-2,cis-3-trimethylcyclohexane"	615.97	26.49	470.5	0.28
"1678-82-6"	"trans-1-methyl-4-isopropylcyclohexane"	667	25.7	534	0.274
"1678-91-7"	"ethylcyclohexane"	609.15	30.4	430	0.246
"1678-92-8"	"propylcyclohexane"	639.15	28.07	477	0.26
"1678-93-9"	"butylcyclohexane"	667	25.7	534	0.274
"1678-97-3"	"1,2,3-trimethylcyclohexane"	621.31	27.4	470.6	0.29
"1678-98-4"	"isobutylcyclohexane"	667	25.7	534	0.274
"16789-46-1"	"3-ethyl-2-methylhexane"	588.1	24.52	497	0.378
"16789-51-8"	"3-ethyl-3-hexene"	565.63	26.87	464.5	0.351
"1679-06-7"	"2-hexanethiol"	607	30	417	0.339
"1679-07-8"	"cyclopentanethiol"	629	42.7	310.5	0.262
"1679-08-9"	"2,2-dimethyl-1-propanethiol"	570	34	369	0.281
"1679-09-0"	"2-methyl-2-butanethiol"	566	32.7	358.5	0.243
"1680-51-9"	"1,2,3,4-tetrahydro-6-methylnaphthalene"	721.7	30.76	492.5	0.379
"1680-53-1"	"1-methyl-4-isopropylnaphthalene"	817.54	24.8	627.5	0.507
"1680-58-6"	"1-sec-butylnaphthalene"	818.49	25.18	627.5	0.508
"1681-22-7"	"1,2,3,4-tetrahydro-1,1,2,6-tetramethylnaphthalene"	760.47	22.87	660.5	0.511
"16813-18-6"	"2-heptadecanol"	764.4	13.9	988	0.801
"16844-08-9"	"(S)-2-chlorooctane"	642.41	24.43	532.5	0.462
"1687-61-2"	"3-methyl-6-ethylphenol"	722.37	37.87	365.5	0.495
"1687-64-5"	"2-methyl-6-ethylphenol"	707.55	37.87	365.5	0.495
"1687-65-6"	"2-methyl-5-ethylphenol"	727.45	37.87	365.5	0.495
"16883-48-0"	"1,trans-2,cis-4-trimethylcyclopentane"	571.1	28.54	422.5	0.265
"16889-72-8"	"tert-butyl 2-methylpropanoate"	600.85	25.31	498.9	0.633
"1689-78-7"	"2-tert-butylthiophene"	665	32.5	433.2	
"1689-79-8"	"3-tert-butylthiophene"	665	32.5	433.2	
"16891-99-9"	"1-nitrododecane"	740.64	17.99	789.5	0.796
"16900-07-5"	"5-thiatridecane"	733.68	18.06	761.5	0.631
"16900-08-6"	"5-thiaheptadecane"	787.27	13.35	985.5	0.754
"1691-17-4"	"tetrafluorodimethyl ether"	420.25	42.28	223	0.368
"16921-96-3"	"iodine heptafluoride"	447.53	41.26	247.1	0.122
"1693-86-3"	"3-hexylthiophene"	705	26	569.6	
"16957-70-3"	"trans-2-methyl-2-pentenoic acid"	696	33	389.4	
"16962-07-5"	"aluminum borohydride"	513.77	112.46	113.96	0.436
"16967-04-7"	"5-thiaundecane"	701.03	21.41	649.5	0.551
"16980-61-3"	"cis-1,4-dimethylcyclohexanol"	645	35.9	448.2	
"16980-85-1"	"1-pentacosene"	826.16	7.82	1416.5	
"1700-10-3"	"1,3-cyclooctadiene"	645	39	366	0.286
"17026-29-8"	"rhenium (VI) oxytetrafluoride"	682.25	0	0	
"17029-21-9"	"rhenium (VII) fluoride"	526.62	0	0	
"1703-52-2"	"2-ethyl-5-methylfuran"	580	38.7	338.2	
"17042-16-9"	"4-methyl-3-hexanone"	588.11	30.22	427.5	0.451
"17057-88-4"	"3,5-dimethylbiphenyl"	792.44	31.36	593	0.458
"17057-91-9"	"1,3,8-trimethylnaphthalene"	786.77	26.71	577.5	0.492
"17057-92-0"	"1-methyl-5-ethylnaphthalene"	766.55	27.13	577.5	0.493
"17057-94-2"	"2-methyl-4-ethylnaphthalene"	772.19	27.13	577.5	0.493
"17059-44-8"	"1,2-dimethyl-3-propylbenzene"	686.65	25.69	543.5	0.441
"17059-45-9"	"1,3-dimethyl-2-propylbenzene"	682.26	25.69	543.5	0.441
"17059-53-9"	"1-methyl-6-ethylnaphthalene"	770.78	27.13	577.5	0.493
"17059-55-1"	"2-methyl-7-ethylnaphthalene"	766.56	27.13	577.5	0.488
"17071-47-5"	"butyl isobutyl ether"	563.33	25.07	489.3	0.415
"1708-29-8"	"2,5-dihydrofuran"	542	55	206	0.22
"17085-91-5"	"1-tert-butylnaphthalene"	781.33	25.46	622.5	0.445
"17085-96-0"	"3-ethyldecane"	648.96	17.92	701.5	0.548
"17091-40-6"	"2-(isobutylamino)ethanol"	681	34.4	436	0.97
"1717-00-6"	"1,1-dichloro-1-fluoroethane"	478.85	43.4	253	0.221
"17179-41-8"	"1-methyl-3-ethylnaphthalene"	770.78	27.13	577.5	0.493
"1718-50-9"	"1,5-diphenylpentane"	786.4	20.4	836	0.587
"17206-52-9"	"2-ethyl-2-methylcyclohexanone"	690	29.5	474.6	
"1721-89-7"	"2,3-dimethylquinoline"	774.45	33.53	514.5	0.497
"1721-93-3"	"1-methylisoquinoline"	778.59	37.05	463	0.428
"17226-28-7"	"di-sec-butyl ether, (±)"	563.33	25.07	489.3	0.415
"17226-34-5"	"cis-3-chloro-3-hexene"	583.61	31.6	400.5	0.341
"1726-12-1"	"1,1-diphenylpentane"	786.4	20.4	836	0.587
"1726-13-2"	"1,1-diphenylnonane"	816.5	15.7	1077	0.731
"1726-14-3"	"1,1-diphenyl-1-butene"	790.85	24.15	696.5	0.509
"1728-46-7"	"2-tert-butylcyclohexanone"	710	27.5	519.5	
"17299-07-9"	"(2R,5R)-2,5-hexanediol"	649.93	39.42	396.9	1.16
"1730-91-2"	"(S)-(+)-2-methylbutanoic acid"	640.04	38.86	336.9	0.599
"17301-94-9"	"4-methylnonane"	610	21.6	583	0.465
"17302-01-1"	"3-ethyl-3-methylheptane"	620	23.1	532	0.389
"17302-02-2"	"3,3-diethylhexane"	627.8	24.12	510	0.377
"17302-04-4"	"4-ethyl-4-methylheptane"	615.7	23.1	525	0.39
"17302-11-3"	"3-ethylnonane"	630.13	19.48	645.5	0.507
"17302-12-4"	"5-ethylnonane"	619.2	19.48	645.5	0.507
"17302-13-5"	"4-propyloctane"	619.2	19.48	645.5	0.507
"17302-14-6"	"2,2-dimethylnonane"	626.62	19.67	640.5	0.448
"17302-15-7"	"3,3-dimethylnonane"	629.38	19.67	640.5	0.448
"17302-16-8"	"3-methyl-3-ethyloctane"	634.5	19.67	640.5	0.448
"17302-17-9"	"3,3-diethylheptane"	636.16	19.67	640.5	0.448
"17302-18-0"	"4,4-dimethylnonane"	623.85	19.67	640.5	0.448
"17302-19-1"	"4-methyl-4-ethyloctane"	626.62	19.67	640.5	0.448
"17302-20-4"	"4-methyl-4-propylheptane"	623.85	19.67	640.5	0.448
"17302-21-5"	"4,4-diethylheptane"	627.03	19.67	640.5	0.448
"17302-22-6"	"3,4-dimethylnonane"	629.74	19.61	639.5	0.478
"17302-23-7"	"4,5-dimethylnonane"	625.61	19.61	639.5	0.478
"17302-24-8"	"2,4-dimethylnonane"	620.12	19.61	639.5	0.478
"17302-25-9"	"3,5-dimethylnonane"	622.87	19.61	639.5	0.478
"17302-26-0"	"4,6-dimethylnonane"	621.49	19.61	639.5	0.478
"17302-27-1"	"2,5-dimethylnonane"	621.49	19.61	639.5	0.478
"17302-28-2"	"2,6-dimethylnonane"	621.49	19.61	639.5	0.478
"17302-29-3"	"2,7-dimethylnonane"	622.87	19.61	639.5	0.478
"17302-30-6"	"2,8-dimethylnonane"	626.99	19.61	639.5	0.478
"17302-31-7"	"3,6-dimethylnonane"	625.61	19.61	639.5	0.478
"17302-32-8"	"3,7-dimethylnonane"	628.36	19.61	639.5	0.478
"17302-33-9"	"6-methylundecane"	645.32	17.92	701.5	0.548
"17302-36-2"	"5-ethyldecane"	639.94	17.92	701.5	0.548
"17302-37-3"	"2,2-dimethyldecane"	645.65	18.09	696.5	0.489
"17302-38-4"	"3,3-dimethyldecane"	648.37	18.09	696.5	0.489
"17302-39-5"	"3-methyl-3-ethylnonane"	649.73	18.09	696.5	0.489
"17302-40-8"	"3,3-diethyloctane"	651.09	18.09	696.5	0.489
"1731-81-3"	"undecyl acetate"	707.6	15.4	809	0.849
"1731-84-6"	"methyl nonanoate"	637	22	600	0.579
"1731-86-8"	"methyl undecanoate"	667	18.93	717.3	0.699
"1731-88-0"	"methyl tridecanoate"	695	16.6	800.5	
"1731-92-6"	"methyl heptadecanoate"	746	13.4	986.8	
"1731-94-8"	"methyl nonadecanoate"	772	12.2	1074.9	
"17312-39-9"	"4,4-dimethyldecane"	642.92	18.09	696.5	0.489
"17312-40-2"	"4-methyl-4-ethylnonane"	642.92	18.09	696.5	0.489
"17312-41-3"	"4-methyl-4-propyloctane"	637.48	18.09	696.5	0.489
"17312-42-4"	"4,4-diethyloctane"	644.29	18.09	696.5	0.489
"17312-43-5"	"4-ethyl-4-propylheptane"	640.2	18.09	696.5	0.489
"17312-44-6"	"2,3-dimethyldecane"	648.85	18.05	695.5	0.519
"17312-45-7"	"3,4-dimethyldecane"	647.49	18.05	695.5	0.519
"17312-46-8"	"4,5-dimethyldecane"	643.43	18.05	695.5	0.519
"17312-48-0"	"3,5-dimethyldecane"	640.72	18.05	695.5	0.519
"17312-49-1"	"4,6-dimethyldecane"	638.02	18.05	695.5	0.519
"17312-50-4"	"2,5-dimethyldecane"	638.02	18.05	695.5	0.519
"17312-51-5"	"2,7-dimethyldecane"	643.43	18.05	695.5	0.519
"17312-52-6"	"2,8-dimethyldecane"	646.14	18.05	695.5	0.519
"17312-53-7"	"3,6-dimethyldecane"	642.08	18.05	695.5	0.519
"17312-54-8"	"3,7-dimethyldecane"	643.43	18.05	695.5	0.519
"17312-55-9"	"3,8-dimethyldecane"	647.49	18.05	695.5	0.519
"17312-56-0"	"4,7-dimethyldecane"	639.37	18.05	695.5	0.519
"17312-57-1"	"3-methyldodecane"	669.09	16.55	757.5	0.586
"17312-63-9"	"5-butylnonane"	666.51	16.73	756.8	0.573
"17312-64-0"	"2,2-dimethylundecane"	663.4	16.7	752.5	0.529
"17312-77-5"	"2,3-dimethylundecane"	669.37	16.66	751.5	0.558
"17312-80-0"	"2,4-dimethylundecane"	653.35	16.66	751.5	0.558
"17337-12-1"	"1,1,1-trifluorohexane"	498.2	26.1	412	0.409
"17348-59-3"	"isopropyl-tert-butyl-ether"	558.21	28.29	428.5	0.307
"17352-32-8"	"nonadecanal"	774.21	11.35	1116.5	0.861
"17361-44-3"	"ditetradecylamine"	877.86	6.6	1638.5	
"17373-27-2"	"dimethylnonylamine"	668.7	19.1	675	0.483
"17373-28-3"	"dimethylundecylamine"	700.5	16.4	785	0.57
"17373-29-4"	"dimethyltridecylamine"	727.4	14	895	0.643
"1740-19-8"	"dehydroabietic acid"	828	17.5	980	0.915
"1740-97-2"	"2-methyl-4-isopropylphenol"	785.78	34.08	415.5	0.509
"1741-83-9"	"2-thiaheptane"	587.98	31.67	425.5	0.376
"17430-98-7"	"(S)-(+)-1-cyclohexylethylamine"	642	31	448.7	
"17440-85-6"	"beryllium borohydride"	591.45	48.77	302.5	0.147
"17447-00-6"	"methyl cis-3-methyl-2-pentenoate"	592.33	28.3	428	0.432
"17447-01-7"	"methyl trans-3-methyl-2-pentenoate"	592.33	28.3	428	0.432
"1745-16-0"	"3-pentenylbenzene"	703	28	521.3	
"17453-92-8"	"5,5-dimethyldecane"	640.2	18.09	696.5	0.489
"1746-23-2"	"4-tert-butylstyrene"	709	24.8	594	0.422
"17516-95-9"	"3,cis-5-dimethylcyclohexene"	597.92	31.63	401.5	0.26
"17540-75-9"	"4-sec-butyl-2,6-di-tert-butylphenol"	770	17	854.9	
"17577-93-4"	"2-methyl-5-octeN-4-one"	655	28.6	511.2	
"1758-85-6"	"1-methyl-2,4-diethylbenzene"	678.57	25.69	543.5	0.441
"1758-88-9"	"2-ethyl-p-xylene"	663	28.8	482	0.411
"1759-53-1"	"cyclopropanecarboxylic acid"	656.42	46.6	269.1	0.5
"1759-58-6"	"trans-1,3-dimethylcyclopentane"	553	34.45	360	0.27
"1759-64-4"	"1,6-dimethylcyclohexene"	610.68	31.63	401.5	0.26
"1759-81-5"	"4-methylcyclopentene"	527	41.3	303	0.236
"17616-44-3"	"1,3-diiodo-2-methylpropane"	726.41	37.27	429.5	0.287
"17618-76-7"	"2-methyl-3-heptene"	564.74	26.94	458.8	0.328
"1762-95-4"	"ammonium thiocyanate"	854	82.3	248	0.359
"17648-05-4"	"2,5-dimethyl-2,5-diphenylhexane"	810	16.7	1014	0.698
"17661-50-6"	"tetradecyl stearate"	875	7	1907.9	
"17678-60-3"	"dimethylpentadecylamine"	750.5	12	1005	0.699
"17679-92-4"	"1-octeN-3-yne"	570	33	372.8	
"17696-37-6"	"4-tert-butyl-2,5-dimethylphenol"	755.67	27.47	598.7	0.59
"17702-41-9"	"decaborane"	791.78	59.02	334.63	0.203
"1772-10-7"	"1-methyl-3-sec-butylbenzene"	668.49	26.3	537.5	0.412
"17760-40-6"	"1,1,1-trichlorohexane"	657.17	28.11	507.5	0.389
"17773-64-7"	"2-chloro-3-methyl-1-butene"	555.9	35.43	340.5	0.252
"17773-65-8"	"2-chloro-3-methyl-2-butene"	563.35	35.73	346.5	0.247
"17773-66-9"	"2,2-dichloro-3-methylbutane"	633.42	32.84	396.5	0.262
"17839-26-8"	"ethylpentylamine"	575	27.5	455	0.496
"17851-27-3"	"1,2,4-trimethyl-5-ethylbenzene"	689.07	25.3	543.5	0.441
"1790-22-3"	"1,2,4-trichlorobutane"	652.82	34.4	400.5	0.362
"17912-17-3"	"1,5-dibromooctane"	716.02	29.54	601.5	0.616
"1795-01-3"	"3-ethylthiophene"	626.7	40.6	325	0.298
"1795-04-6"	"2,3,4-trimethylthiophene"	654.54	36.47	383	0.431
"1795-05-7"	"2,3,5-trimethylthiophene"	656.26	36.47	382.5	0.341
"1795-09-1"	"2-methylthiacyclopentane"	637	43.06	302.5	0.229
"1795-15-9"	"octylcyclohexane"	723.61	18	752.5	0.538
"1795-16-0"	"decylcyclohexane"	751.25	16.5	858	0.663
"1795-17-1"	"dodecylcyclohexane"	772.83	13.31	976.5	0.675
"1795-18-2"	"tetradecylcyclohexane"	792.82	11.62	1088.5	0.719
"1795-20-6"	"octylcyclopentane"	702.06	19.14	704.5	0.526
"1795-21-7"	"decylcyclopentane"	730.64	16.29	816.5	0.604
"1795-22-8"	"tetradecylcyclopentane"	772	11.2	1040.5	0.789
"1795-26-2"	"cis,trans-1,3,5-trimethylcyclohexane"	602.2	28.4	472	0.367
"1795-27-3"	"cis,cis-1,3,5-trimethylcyclohexane"	607.86	26.49	470.5	0.274
"17952-11-3"	"1-ethoxy-pentane"	558.21	28.29	428.5	0.307
"1805-61-4"	"4-isopentylphenol"	751	29.8	546	0.569
"1806-26-4"	"4-octylphenol"	765	22.8	704	0.631
"1809-05-8"	"3-iodopentane"	588.5	40.78	328.5	0.694
"1809-10-5"	"3-bromopentane"	587.16	38.06	371.5	0.359
"1809-26-3"	"4-bromo-2-pentene"	586.22	40.33	356.2	0.334
"18094-01-4"	"2-methyl-1-tridecene"	690.08	17.55	801.5	0.669
"1812-51-7"	"2-ethylbiphenyl"	777.4	31.3	593	0.45
"1814-88-6"	"1,1,1,2,2-pentafluoropropane"	380.11	31.37	273.2	0.305
"18172-67-3"	"(1S)-(-)-b-pinene"	647	27.8	505.3	0.341
"1821-39-2"	"2-propylaniline"	705.58	32.84	482	0.413
"18217-12-4"	"5-methyl-2-heptanone"	624	26.4	469	0.528
"18231-53-3"	"3,3-dimethyl-2-ethyl-1-butene"	568.22	27.13	454.5	0.272
"1825-14-5"	"DL-2,4-pentanediol"	630.45	44.56	341.5	1.142
"18254-57-4"	"1,1-dicyclohexyldodecane"	825.63	10.33	1245.5	0.729
"18261-92-2"	"3-octadecanone"	758.47	12.03	1049.5	0.838
"18262-85-6"	"1-ethyl-2,3,5-trimethylbenzene"	678.03	26.02	540.1	0.42
"18281-05-5"	"ethyl eicosanoate"	764	11.1	1129.6	
"18283-93-7"	"tetraborane"	466.66	38.84	273.67	0.107
"18295-25-5"	"2-bromo-3-methylbutane"	587.23	38.44	365.5	0.328
"18295-27-7"	"2-iodo-3-methylbutane"	585.43	41.2	322.5	0.66
"18295-59-5"	"2-propylpentanal"	614	25.65	474	0.534
"18300-91-9"	"pentadecanenitrile"	756.38	13.89	901.5	0.805
"18328-90-0"	"N-ethyl-2-methylallylamine"	556	31.8	405	0.355
"18338-40-4"	"1,2,3-trichlorobutane"	656.99	34.72	394.5	0.332